
     Program PWSCF v.6.0 (svn rev. 13079) starts on  1May2018 at 11:31:33 

     This program is part of the open-source Quantum ESPRESSO suite
     for quantum simulation of materials; please cite
         "P. Giannozzi et al., J. Phys.:Condens. Matter 21 395502 (2009);
          URL http://www.quantum-espresso.org", 
     in publications or presentations arising from this work. More details at
     http://www.quantum-espresso.org/quote

     Parallel version (MPI), running on     4 processors
     R & G space division:  proc/nbgrp/npool/nimage =       4
     Waiting for input...
     Reading input from standard input

     Current dimensions of program PWSCF are:
     Max number of different atomic species (ntypx) = 10
     Max number of k-points (npk) =  40000
     Max angular momentum in pseudopotentials (lmaxx) =  3

     Subspace diagonalization in iterative solution of the eigenvalue problem:
     a serial algorithm will be used


     Parallelization info
     --------------------
     sticks:   dense  smooth     PW     G-vecs:    dense   smooth      PW
     Min         762     303     90                27736     6984    1142
     Max         763     304     91                27738     6987    1145
     Sum        3049    1213    361               110947    27941    4573



     bravais-lattice index     =            0
     lattice parameter (alat)  =       1.8897  a.u.
     unit-cell volume          =     586.6735 (a.u.)^3
     number of atoms/cell      =            4
     number of atomic types    =            2
     number of electrons       =        51.00
     number of Kohn-Sham states=           31
     kinetic-energy cutoff     =      50.0000  Ry
     charge density cutoff     =     500.0000  Ry
     convergence threshold     =      1.0E-10
     mixing beta               =       0.6000
     number of iterations used =            8  plain     mixing
     Exchange-correlation      = SLA  PW   PBE  PBE ( 1  4  3  4 0 0)
     nstep                     =           50


     celldm(1)=   1.889726  celldm(2)=   0.000000  celldm(3)=   0.000000
     celldm(4)=   0.000000  celldm(5)=   0.000000  celldm(6)=   0.000000

     crystal axes: (cart. coord. in units of alat)
               a(1) = (   0.000000   3.516063   3.516063 )  
               a(2) = (   3.516063   0.000000   3.516063 )  
               a(3) = (   3.516063   3.516063   0.000000 )  

     reciprocal axes: (cart. coord. in units 2 pi/alat)
               b(1) = ( -0.142205  0.142205  0.142205 )  
               b(2) = (  0.142205 -0.142205  0.142205 )  
               b(3) = (  0.142205  0.142205 -0.142205 )  


     PseudoPot. # 1 for Nb read from file:
     ./Nb.pbe-nsp-van.UPF
     MD5 check sum: 0a22fc7fb0ba19a08ca5db297a5d2854
     Pseudo is Ultrasoft + core correction, Zval = 13.0
     Generated by new atomic code, or converted to UPF format
     Using radial grid of  887 points,  6 beta functions with: 
                l(1) =   0
                l(2) =   0
                l(3) =   1
                l(4) =   1
                l(5) =   2
                l(6) =   2
     Q(r) pseudized with  6 coefficients,  rinner =    1.000   1.000   1.000
                                                       1.000   1.000

     PseudoPot. # 2 for Ti read from file:
     ./Ti.pbe-sp-van_ak.UPF
     MD5 check sum: f98fea3e8887528921fefa5636a534ca
     Pseudo is Ultrasoft, Zval = 12.0
     Generated by new atomic code, or converted to UPF format
     Using radial grid of  851 points,  6 beta functions with: 
                l(1) =   0
                l(2) =   0
                l(3) =   1
                l(4) =   1
                l(5) =   2
                l(6) =   2
     Q(r) pseudized with  8 coefficients,  rinner =    1.000   1.000   1.000
                                                       1.000   1.000

     atomic species   valence    mass     pseudopotential
        Nb            13.00    92.90638     Nb( 1.00)
        Ti            12.00    47.86700     Ti( 1.00)

     48 Sym. Ops., with inversion, found (24 have fractional translation)



   Cartesian axes

     site n.     atom                  positions (alat units)
         1           Ti  tau(   1) = (   1.7580316   1.7580316   1.7580316  )
         2           Nb  tau(   2) = (   3.5160633   3.5160633   3.5160633  )
         3           Nb  tau(   3) = (   5.2740949   5.2740949   5.2740949  )
         4           Nb  tau(   4) = (   7.0321265   7.0321265   7.0321265  )

     number of k points=    84  Marzari-Vanderbilt smearing, width (Ry)=  0.0200
                       cart. coord. in units 2pi/alat
        k(    1) = (   0.0000000   0.0000000   0.0000000), wk =   0.0009103
        k(    2) = (   0.0109388   0.0109388  -0.0109388), wk =   0.0072827
        k(    3) = (   0.0218776   0.0218776  -0.0218776), wk =   0.0072827
        k(    4) = (   0.0328164   0.0328164  -0.0328164), wk =   0.0072827
        k(    5) = (   0.0437552   0.0437552  -0.0437552), wk =   0.0072827
        k(    6) = (   0.0546940   0.0546940  -0.0546940), wk =   0.0072827
        k(    7) = (   0.0656328   0.0656328  -0.0656328), wk =   0.0072827
        k(    8) = (   0.0218776   0.0000000   0.0000000), wk =   0.0054620
        k(    9) = (   0.0328164   0.0109388  -0.0109388), wk =   0.0218480
        k(   10) = (   0.0437552   0.0218776  -0.0218776), wk =   0.0218480
        k(   11) = (   0.0546940   0.0328164  -0.0328164), wk =   0.0218480
        k(   12) = (   0.0656328   0.0437552  -0.0437552), wk =   0.0218480
        k(   13) = (   0.0765717   0.0546940  -0.0546940), wk =   0.0218480
        k(   14) = (  -0.0546940  -0.0765717   0.0765717), wk =   0.0218480
        k(   15) = (  -0.0437552  -0.0656328   0.0656328), wk =   0.0218480
        k(   16) = (  -0.0328164  -0.0546940   0.0546940), wk =   0.0218480
        k(   17) = (  -0.0218776  -0.0437552   0.0437552), wk =   0.0218480
        k(   18) = (  -0.0109388  -0.0328164   0.0328164), wk =   0.0218480
        k(   19) = (   0.0000000  -0.0218776   0.0218776), wk =   0.0109240
        k(   20) = (   0.0437552   0.0000000   0.0000000), wk =   0.0054620
        k(   21) = (   0.0546940   0.0109388  -0.0109388), wk =   0.0218480
        k(   22) = (   0.0656328   0.0218776  -0.0218776), wk =   0.0218480
        k(   23) = (   0.0765717   0.0328164  -0.0328164), wk =   0.0218480
        k(   24) = (   0.0875105   0.0437552  -0.0437552), wk =   0.0218480
        k(   25) = (  -0.0437552  -0.0875105   0.0875105), wk =   0.0218480
        k(   26) = (  -0.0328164  -0.0765717   0.0765717), wk =   0.0218480
        k(   27) = (  -0.0218776  -0.0656328   0.0656328), wk =   0.0218480
        k(   28) = (  -0.0109388  -0.0546940   0.0546940), wk =   0.0218480
        k(   29) = (   0.0000000  -0.0437552   0.0437552), wk =   0.0109240
        k(   30) = (   0.0656328   0.0000000   0.0000000), wk =   0.0054620
        k(   31) = (   0.0765717   0.0109388  -0.0109388), wk =   0.0218480
        k(   32) = (   0.0875105   0.0218776  -0.0218776), wk =   0.0218480
        k(   33) = (   0.0984493   0.0328164  -0.0328164), wk =   0.0218480
        k(   34) = (  -0.0328164  -0.0984493   0.0984493), wk =   0.0218480
        k(   35) = (  -0.0218776  -0.0875105   0.0875105), wk =   0.0218480
        k(   36) = (  -0.0109388  -0.0765717   0.0765717), wk =   0.0218480
        k(   37) = (   0.0000000  -0.0656328   0.0656328), wk =   0.0109240
        k(   38) = (   0.0875105   0.0000000   0.0000000), wk =   0.0054620
        k(   39) = (   0.0984493   0.0109388  -0.0109388), wk =   0.0218480
        k(   40) = (   0.1093881   0.0218776  -0.0218776), wk =   0.0218480
        k(   41) = (  -0.0218776  -0.1093881   0.1093881), wk =   0.0218480
        k(   42) = (  -0.0109388  -0.0984493   0.0984493), wk =   0.0218480
        k(   43) = (   0.0000000  -0.0875105   0.0875105), wk =   0.0109240
        k(   44) = (   0.1093881   0.0000000   0.0000000), wk =   0.0054620
        k(   45) = (   0.1203269   0.0109388  -0.0109388), wk =   0.0218480
        k(   46) = (  -0.0109388  -0.1203269   0.1203269), wk =   0.0218480
        k(   47) = (   0.0000000  -0.1093881   0.1093881), wk =   0.0109240
        k(   48) = (   0.1312657   0.0000000   0.0000000), wk =   0.0054620
        k(   49) = (   0.0000000  -0.1312657   0.1312657), wk =   0.0109240
        k(   50) = (   0.0437552   0.0218776   0.0000000), wk =   0.0218480
        k(   51) = (   0.0546940   0.0328164  -0.0109388), wk =   0.0436959
        k(   52) = (   0.0656328   0.0437552  -0.0218776), wk =   0.0436959
        k(   53) = (   0.0765717   0.0546940  -0.0328164), wk =   0.0436959
        k(   54) = (  -0.0546940  -0.0765717   0.0984493), wk =   0.0436959
        k(   55) = (   0.0656328   0.0218776   0.0000000), wk =   0.0218480
        k(   56) = (   0.0765717   0.0328164  -0.0109388), wk =   0.0436959
        k(   57) = (   0.0875105   0.0437552  -0.0218776), wk =   0.0436959
        k(   58) = (  -0.0437552  -0.0875105   0.1093881), wk =   0.0436959
        k(   59) = (  -0.0328164  -0.0765717   0.0984493), wk =   0.0436959
        k(   60) = (  -0.0218776  -0.0656328   0.0875105), wk =   0.0436959
        k(   61) = (  -0.0109388  -0.0546940   0.0765717), wk =   0.0436959
        k(   62) = (   0.0000000  -0.0437552   0.0656328), wk =   0.0218480
        k(   63) = (   0.0875105   0.0218776  -0.0000000), wk =   0.0218480
        k(   64) = (   0.0984493   0.0328164  -0.0109388), wk =   0.0436959
        k(   65) = (  -0.0328164  -0.0984493   0.1203269), wk =   0.0436959
        k(   66) = (  -0.0218776  -0.0875105   0.1093881), wk =   0.0436959
        k(   67) = (  -0.0109388  -0.0765717   0.0984493), wk =   0.0436959
        k(   68) = (   0.0000000  -0.0656328   0.0875105), wk =   0.0218480
        k(   69) = (   0.1093881   0.0218776   0.0000000), wk =   0.0218480
        k(   70) = (  -0.0218776  -0.1093881   0.1312657), wk =   0.0436959
        k(   71) = (  -0.0109388  -0.0984493   0.1203269), wk =   0.0436959
        k(   72) = (   0.0000000  -0.0875105   0.1093881), wk =   0.0218480
        k(   73) = (  -0.0109388  -0.1203269   0.1422045), wk =   0.0218480
        k(   74) = (   0.0000000  -0.1093881   0.1312657), wk =   0.0218480
        k(   75) = (   0.0875105   0.0437552   0.0000000), wk =   0.0218480
        k(   76) = (  -0.0437552  -0.0875105   0.1312657), wk =   0.0436959
        k(   77) = (  -0.0328164  -0.0765717   0.1203269), wk =   0.0436959
        k(   78) = (  -0.0328164  -0.0984493   0.1422045), wk =   0.0218480
        k(   79) = (  -0.0218776  -0.0875105   0.1312657), wk =   0.0436959
        k(   80) = (  -0.0109388  -0.0765717   0.1203269), wk =   0.0436959
        k(   81) = (   0.0000000  -0.0656328   0.1093881), wk =   0.0218480
        k(   82) = (  -0.0109388  -0.0984493   0.1422045), wk =   0.0218480
        k(   83) = (   0.0000000  -0.0875105   0.1312657), wk =   0.0218480
        k(   84) = (  -0.0109388  -0.0765717   0.1422045), wk =   0.0218480

     Dense  grid:   110947 G-vectors     FFT dimensions: (  72,  72,  72)

     Smooth grid:    27941 G-vectors     FFT dimensions: (  45,  45,  45)

     Estimated max dynamical RAM per process >      57.74Mb

     Estimated total allocated dynamical RAM >     230.95Mb

     Initial potential from superposition of free atoms

     starting charge   49.99176, renormalised to   51.00000
     Starting wfc are   49 randomized atomic wfcs

     total cpu time spent up to now is       13.6 secs

     per-process dynamical memory:   119.5 Mb

     Self-consistent Calculation

     iteration #  1     ecut=    50.00 Ry     beta=0.60
     Davidson diagonalization with overlap
     ethr =  1.00E-02,  avg # of iterations =  2.1

     total cpu time spent up to now is       29.5 secs

     total energy              =    -455.80947726 Ry
     Harris-Foulkes estimate   =    -471.97930183 Ry
     estimated scf accuracy    <      20.40019979 Ry

     iteration #  2     ecut=    50.00 Ry     beta=0.60
     Davidson diagonalization with overlap
     ethr =  1.00E-02,  avg # of iterations =  5.7

     total cpu time spent up to now is       59.7 secs

     total energy              =    -459.64365154 Ry
     Harris-Foulkes estimate   =    -490.18614455 Ry
     estimated scf accuracy    <      93.05714165 Ry

     iteration #  3     ecut=    50.00 Ry     beta=0.60
     Davidson diagonalization with overlap
     ethr =  1.00E-02,  avg # of iterations =  4.7

     total cpu time spent up to now is       81.8 secs

     total energy              =    -471.30266215 Ry
     Harris-Foulkes estimate   =    -472.28137232 Ry
     estimated scf accuracy    <       6.94722508 Ry

     iteration #  4     ecut=    50.00 Ry     beta=0.60
     Davidson diagonalization with overlap
     ethr =  1.00E-02,  avg # of iterations =  1.4

     total cpu time spent up to now is       95.2 secs

     total energy              =    -471.57174597 Ry
     Harris-Foulkes estimate   =    -471.55263876 Ry
     estimated scf accuracy    <       4.05880796 Ry

     iteration #  5     ecut=    50.00 Ry     beta=0.60
     Davidson diagonalization with overlap
     ethr =  7.96E-03,  avg # of iterations =  1.0

     total cpu time spent up to now is      108.4 secs

     total energy              =    -471.60184852 Ry
     Harris-Foulkes estimate   =    -471.59947612 Ry
     estimated scf accuracy    <       4.12405036 Ry

     iteration #  6     ecut=    50.00 Ry     beta=0.60
     Davidson diagonalization with overlap
     ethr =  7.96E-03,  avg # of iterations =  1.0

     total cpu time spent up to now is      121.6 secs

     total energy              =    -471.84342515 Ry
     Harris-Foulkes estimate   =    -471.61179748 Ry
     estimated scf accuracy    <       4.13258677 Ry

     iteration #  7     ecut=    50.00 Ry     beta=0.60
     Davidson diagonalization with overlap
     ethr =  7.96E-03,  avg # of iterations =  1.0

     total cpu time spent up to now is      134.8 secs

     total energy              =    -470.80211792 Ry
     Harris-Foulkes estimate   =    -472.02774733 Ry
     estimated scf accuracy    <       5.32334095 Ry

     iteration #  8     ecut=    50.00 Ry     beta=0.60
     Davidson diagonalization with overlap
     ethr =  7.96E-03,  avg # of iterations =  2.8

     total cpu time spent up to now is      149.2 secs

     total energy              =    -470.36080307 Ry
     Harris-Foulkes estimate   =    -471.28790477 Ry
     estimated scf accuracy    <       4.68737174 Ry

     iteration #  9     ecut=    50.00 Ry     beta=0.60
     Davidson diagonalization with overlap
     ethr =  7.96E-03,  avg # of iterations =  4.5

     total cpu time spent up to now is      169.1 secs

     total energy              =    -471.19277027 Ry
     Harris-Foulkes estimate   =    -471.42801974 Ry
     estimated scf accuracy    <       9.32678956 Ry

     iteration # 10     ecut=    50.00 Ry     beta=0.60
     Davidson diagonalization with overlap
     ethr =  7.96E-03,  avg # of iterations =  1.0

     total cpu time spent up to now is      182.3 secs

     total energy              =    -471.02460422 Ry
     Harris-Foulkes estimate   =    -471.21548617 Ry
     estimated scf accuracy    <       7.85802983 Ry

     iteration # 11     ecut=    50.00 Ry     beta=0.60
     Davidson diagonalization with overlap
     ethr =  7.96E-03,  avg # of iterations =  1.0

     total cpu time spent up to now is      195.5 secs

     total energy              =    -470.35406214 Ry
     Harris-Foulkes estimate   =    -471.03729769 Ry
     estimated scf accuracy    <       6.46742579 Ry

     iteration # 12     ecut=    50.00 Ry     beta=0.60
     Davidson diagonalization with overlap
     ethr =  7.96E-03,  avg # of iterations =  1.0

     total cpu time spent up to now is      208.7 secs

     total energy              =    -470.61471473 Ry
     Harris-Foulkes estimate   =    -470.54450410 Ry
     estimated scf accuracy    <       3.49314316 Ry

     iteration # 13     ecut=    50.00 Ry     beta=0.60
     Davidson diagonalization with overlap
     ethr =  6.85E-03,  avg # of iterations =  1.0

     total cpu time spent up to now is      222.0 secs

     total energy              =    -469.41579961 Ry
     Harris-Foulkes estimate   =    -470.67450635 Ry
     estimated scf accuracy    <       3.67336263 Ry

     iteration # 14     ecut=    50.00 Ry     beta=0.60
     Davidson diagonalization with overlap
     ethr =  6.85E-03,  avg # of iterations =  5.0

     total cpu time spent up to now is      242.4 secs

     total energy              =    -470.45392687 Ry
     Harris-Foulkes estimate   =    -471.02465193 Ry
     estimated scf accuracy    <       3.43397885 Ry

     iteration # 15     ecut=    50.00 Ry     beta=0.60
     Davidson diagonalization with overlap
     ethr =  6.73E-03,  avg # of iterations =  2.5

     total cpu time spent up to now is      256.9 secs

     total energy              =    -470.76231432 Ry
     Harris-Foulkes estimate   =    -470.83670899 Ry
     estimated scf accuracy    <       2.28814040 Ry

     iteration # 16     ecut=    50.00 Ry     beta=0.60
     Davidson diagonalization with overlap
     ethr =  4.49E-03,  avg # of iterations =  1.0

     total cpu time spent up to now is      270.1 secs

     total energy              =    -470.68420642 Ry
     Harris-Foulkes estimate   =    -470.78042585 Ry
     estimated scf accuracy    <       2.20220575 Ry

     iteration # 17     ecut=    50.00 Ry     beta=0.60
     Davidson diagonalization with overlap
     ethr =  4.32E-03,  avg # of iterations =  1.0

     total cpu time spent up to now is      283.3 secs

     total energy              =    -470.56297549 Ry
     Harris-Foulkes estimate   =    -470.70158975 Ry
     estimated scf accuracy    <       2.24443196 Ry

     iteration # 18     ecut=    50.00 Ry     beta=0.60
     Davidson diagonalization with overlap
     ethr =  4.32E-03,  avg # of iterations =  1.0

     total cpu time spent up to now is      296.5 secs

     total energy              =    -470.52622391 Ry
     Harris-Foulkes estimate   =    -470.57628325 Ry
     estimated scf accuracy    <       1.82030368 Ry

     iteration # 19     ecut=    50.00 Ry     beta=0.60
     Davidson diagonalization with overlap
     ethr =  3.57E-03,  avg # of iterations =  1.0

     total cpu time spent up to now is      309.8 secs

     total energy              =    -470.37630336 Ry
     Harris-Foulkes estimate   =    -470.54148122 Ry
     estimated scf accuracy    <       1.37865999 Ry

     iteration # 20     ecut=    50.00 Ry     beta=0.60
     Davidson diagonalization with overlap
     ethr =  2.70E-03,  avg # of iterations =  2.0

     total cpu time spent up to now is      323.7 secs

     total energy              =    -470.35300929 Ry
     Harris-Foulkes estimate   =    -470.41001498 Ry
     estimated scf accuracy    <       0.65356600 Ry

     iteration # 21     ecut=    50.00 Ry     beta=0.60
     Davidson diagonalization with overlap
     ethr =  1.28E-03,  avg # of iterations =  3.3

     total cpu time spent up to now is      338.6 secs

     total energy              =    -470.37076924 Ry
     Harris-Foulkes estimate   =    -470.38283557 Ry
     estimated scf accuracy    <       0.31660733 Ry

     iteration # 22     ecut=    50.00 Ry     beta=0.60
     Davidson diagonalization with overlap
     ethr =  6.21E-04,  avg # of iterations =  4.0

     total cpu time spent up to now is      355.2 secs

     total energy              =    -470.41001445 Ry
     Harris-Foulkes estimate   =    -470.42989854 Ry
     estimated scf accuracy    <       0.68645786 Ry

     iteration # 23     ecut=    50.00 Ry     beta=0.60
     Davidson diagonalization with overlap
     ethr =  6.21E-04,  avg # of iterations =  1.0

     total cpu time spent up to now is      368.4 secs

     total energy              =    -470.26664058 Ry
     Harris-Foulkes estimate   =    -470.41159303 Ry
     estimated scf accuracy    <       0.62159379 Ry

     iteration # 24     ecut=    50.00 Ry     beta=0.60
     Davidson diagonalization with overlap
     ethr =  6.21E-04,  avg # of iterations =  5.0

     total cpu time spent up to now is      388.8 secs

     total energy              =    -470.33302539 Ry
     Harris-Foulkes estimate   =    -470.37342850 Ry
     estimated scf accuracy    <       0.35440860 Ry

     iteration # 25     ecut=    50.00 Ry     beta=0.60
     Davidson diagonalization with overlap
     ethr =  6.21E-04,  avg # of iterations =  1.1

     total cpu time spent up to now is      402.0 secs

     total energy              =    -470.35551319 Ry
     Harris-Foulkes estimate   =    -470.34967164 Ry
     estimated scf accuracy    <       0.01165252 Ry

     iteration # 26     ecut=    50.00 Ry     beta=0.60
     Davidson diagonalization with overlap
     ethr =  2.28E-05,  avg # of iterations =  3.9

     total cpu time spent up to now is      420.6 secs

     total energy              =    -470.33832387 Ry
     Harris-Foulkes estimate   =    -470.36621936 Ry
     estimated scf accuracy    <       0.22410801 Ry

     iteration # 27     ecut=    50.00 Ry     beta=0.60
     Davidson diagonalization with overlap
     ethr =  2.28E-05,  avg # of iterations =  5.6

     total cpu time spent up to now is      444.4 secs

     total energy              =    -470.35421010 Ry
     Harris-Foulkes estimate   =    -470.35442768 Ry
     estimated scf accuracy    <       0.00364547 Ry

     iteration # 28     ecut=    50.00 Ry     beta=0.60
     Davidson diagonalization with overlap
     ethr =  7.15E-06,  avg # of iterations =  1.2

     total cpu time spent up to now is      457.6 secs

     total energy              =    -470.35399495 Ry
     Harris-Foulkes estimate   =    -470.35424581 Ry
     estimated scf accuracy    <       0.00172383 Ry

     iteration # 29     ecut=    50.00 Ry     beta=0.60
     Davidson diagonalization with overlap
     ethr =  3.38E-06,  avg # of iterations =  3.3

     total cpu time spent up to now is      473.3 secs

     total energy              =    -470.35415708 Ry
     Harris-Foulkes estimate   =    -470.35417359 Ry
     estimated scf accuracy    <       0.00007378 Ry

     iteration # 30     ecut=    50.00 Ry     beta=0.60
     Davidson diagonalization with overlap
     ethr =  1.45E-07,  avg # of iterations =  4.1

     total cpu time spent up to now is      490.1 secs

     total energy              =    -470.35417121 Ry
     Harris-Foulkes estimate   =    -470.35417431 Ry
     estimated scf accuracy    <       0.00002897 Ry

     iteration # 31     ecut=    50.00 Ry     beta=0.60
     Davidson diagonalization with overlap
     ethr =  5.68E-08,  avg # of iterations =  1.1

     total cpu time spent up to now is      503.3 secs

     total energy              =    -470.35417190 Ry
     Harris-Foulkes estimate   =    -470.35417229 Ry
     estimated scf accuracy    <       0.00000532 Ry

     iteration # 32     ecut=    50.00 Ry     beta=0.60
     Davidson diagonalization with overlap
     ethr =  1.04E-08,  avg # of iterations =  4.0

     total cpu time spent up to now is      519.1 secs

     total energy              =    -470.35417237 Ry
     Harris-Foulkes estimate   =    -470.35417238 Ry
     estimated scf accuracy    <       0.00000059 Ry

     iteration # 33     ecut=    50.00 Ry     beta=0.60
     Davidson diagonalization with overlap
     ethr =  1.15E-09,  avg # of iterations =  3.4

     total cpu time spent up to now is      534.7 secs

     total energy              =    -470.35417238 Ry
     Harris-Foulkes estimate   =    -470.35417243 Ry
     estimated scf accuracy    <       0.00000038 Ry

     iteration # 34     ecut=    50.00 Ry     beta=0.60
     Davidson diagonalization with overlap
     ethr =  7.54E-10,  avg # of iterations =  2.4

     total cpu time spent up to now is      549.0 secs

     total energy              =    -470.35417239 Ry
     Harris-Foulkes estimate   =    -470.35417240 Ry
     estimated scf accuracy    <       0.00000016 Ry

     iteration # 35     ecut=    50.00 Ry     beta=0.60
     Davidson diagonalization with overlap
     ethr =  3.10E-10,  avg # of iterations =  2.9

     total cpu time spent up to now is      563.4 secs

     total energy              =    -470.35417239 Ry
     Harris-Foulkes estimate   =    -470.35417240 Ry
     estimated scf accuracy    <       0.00000006 Ry

     iteration # 36     ecut=    50.00 Ry     beta=0.60
     Davidson diagonalization with overlap
     ethr =  1.17E-10,  avg # of iterations =  3.8

     total cpu time spent up to now is      580.4 secs

     total energy              =    -470.35417240 Ry
     Harris-Foulkes estimate   =    -470.35417240 Ry
     estimated scf accuracy    <       0.00000001 Ry

     iteration # 37     ecut=    50.00 Ry     beta=0.60
     Davidson diagonalization with overlap
     ethr =  2.49E-11,  avg # of iterations =  2.0

     total cpu time spent up to now is      594.3 secs

     total energy              =    -470.35417240 Ry
     Harris-Foulkes estimate   =    -470.35417240 Ry
     estimated scf accuracy    <          3.9E-09 Ry

     iteration # 38     ecut=    50.00 Ry     beta=0.60
     Davidson diagonalization with overlap
     ethr =  7.61E-12,  avg # of iterations =  4.2

     total cpu time spent up to now is      613.5 secs

     total energy              =    -470.35417240 Ry
     Harris-Foulkes estimate   =    -470.35417240 Ry
     estimated scf accuracy    <       0.00000003 Ry

     iteration # 39     ecut=    50.00 Ry     beta=0.60
     Davidson diagonalization with overlap
     ethr =  7.61E-12,  avg # of iterations =  4.3

     total cpu time spent up to now is      632.9 secs

     total energy              =    -470.35417240 Ry
     Harris-Foulkes estimate   =    -470.35417240 Ry
     estimated scf accuracy    <          1.9E-09 Ry

     iteration # 40     ecut=    50.00 Ry     beta=0.60
     Davidson diagonalization with overlap
     ethr =  3.79E-12,  avg # of iterations =  3.6

     total cpu time spent up to now is      650.0 secs

     total energy              =    -470.35417240 Ry
     Harris-Foulkes estimate   =    -470.35417240 Ry
     estimated scf accuracy    <          2.4E-09 Ry

     iteration # 41     ecut=    50.00 Ry     beta=0.60
     Davidson diagonalization with overlap
     ethr =  3.79E-12,  avg # of iterations =  1.0

     total cpu time spent up to now is      663.2 secs

     total energy              =    -470.35417240 Ry
     Harris-Foulkes estimate   =    -470.35417240 Ry
     estimated scf accuracy    <          1.4E-09 Ry

     iteration # 42     ecut=    50.00 Ry     beta=0.60
     Davidson diagonalization with overlap
     ethr =  2.69E-12,  avg # of iterations =  1.5

     total cpu time spent up to now is      676.8 secs

     total energy              =    -470.35417240 Ry
     Harris-Foulkes estimate   =    -470.35417240 Ry
     estimated scf accuracy    <          8.9E-10 Ry

     iteration # 43     ecut=    50.00 Ry     beta=0.60
     Davidson diagonalization with overlap
     ethr =  1.75E-12,  avg # of iterations =  3.6

     total cpu time spent up to now is      693.1 secs

     End of self-consistent calculation

          k = 0.0000 0.0000 0.0000 (  3479 PWs)   bands (ev):

   -43.5383 -41.4261 -41.3778 -41.2218 -19.7782 -19.7782 -19.7782 -17.5048
   -17.5048 -17.5048 -17.4647 -17.4647 -17.4647 -17.1279 -17.1279 -17.1279
     7.7884  10.8120  10.8120  12.1389  12.1389  12.1389  12.6380  12.6380
    12.6380  13.8037  13.8037  13.8037  15.6496  15.6496  16.2707

          k = 0.0109 0.0109-0.0109 (  3509 PWs)   bands (ev):

   -43.5383 -41.4249 -41.3782 -41.2228 -19.7783 -19.7783 -19.7782 -17.5231
   -17.5138 -17.5137 -17.4564 -17.4564 -17.4410 -17.1338 -17.1271 -17.1271
     7.8598  10.8534  10.8534  12.0400  12.1365  12.1365  12.6392  12.6517
    12.6517  13.7763  13.7763  13.8680  15.6339  15.6339  16.2521

          k = 0.0219 0.0219-0.0219 (  3521 PWs)   bands (ev):

   -43.5382 -41.4214 -41.3792 -41.2255 -19.7787 -19.7787 -19.7782 -17.5424
   -17.5304 -17.5304 -17.4415 -17.4415 -17.4083 -17.1479 -17.1249 -17.1249
     8.0695  10.9744  10.9744  11.8554  12.1390  12.1390  12.5408  12.6796
    12.6796  13.6903  13.6903  14.0667  15.5967  15.5967  16.0883

          k = 0.0328 0.0328-0.0328 (  3521 PWs)   bands (ev):

   -43.5381 -41.4161 -41.3808 -41.2296 -19.7793 -19.7793 -19.7781 -17.5498
   -17.5469 -17.5469 -17.4274 -17.4274 -17.3882 -17.1618 -17.1216 -17.1216
     8.4053  11.1655  11.1655  11.7082  12.1652  12.1652  12.2698  12.6931
    12.6931  13.5412  13.5412  14.4044  15.1930  15.5631  15.5631

          k = 0.0438 0.0438-0.0438 (  3506 PWs)   bands (ev):

   -43.5379 -41.4097 -41.3830 -41.2340 -19.7799 -19.7799 -19.7779 -17.5608
   -17.5608 -17.5465 -17.4162 -17.4162 -17.3870 -17.1677 -17.1181 -17.1181
     8.8478  11.4090  11.4090  11.5799  11.9378  12.2278  12.2278  12.6639
    12.6639  13.3379  13.3379  14.3009  14.8802  15.5564  15.5564

          k = 0.0547 0.0547-0.0547 (  3489 PWs)   bands (ev):

   -43.5377 -41.4033 -41.3858 -41.2379 -19.7804 -19.7804 -19.7776 -17.5707
   -17.5707 -17.5378 -17.4085 -17.4085 -17.3977 -17.1667 -17.1151 -17.1151
     9.3726  11.1522  11.6741  11.6741  11.9580  12.3256  12.3256  12.5775
    12.5775  13.1131  13.1131  13.5042  15.4689  15.5804  15.5804

          k = 0.0656 0.0656-0.0656 (  3501 PWs)   bands (ev):

   -43.5377 -41.3983 -41.3887 -41.2402 -19.7806 -19.7806 -19.7774 -17.5759
   -17.5759 -17.5308 -17.4075 -17.4047 -17.4047 -17.1647 -17.1134 -17.1134
     9.9476  10.5732  11.8925  11.8925  12.2343  12.4110  12.4110  12.4775
    12.4775  12.8701  12.9350  12.9350  15.6122  15.6122  15.8947

          k = 0.0219 0.0000 0.0000 (  3523 PWs)   bands (ev):

   -43.5383 -41.4245 -41.3783 -41.2231 -19.7786 -19.7786 -19.7778 -17.5275
   -17.5275 -17.5041 -17.4577 -17.4429 -17.4429 -17.1367 -17.1264 -17.1264
     7.8835  10.8644  10.8685  12.0189  12.1253  12.1253  12.4925  12.7389
    12.7389  13.7941  13.7941  13.8379  15.5793  15.6708  16.2271

          k = 0.0328 0.0109-0.0109 (  3522 PWs)   bands (ev):

   -43.5382 -41.4218 -41.3790 -41.2253 -19.7790 -19.7790 -19.7776 -17.5456
   -17.5442 -17.5102 -17.4501 -17.4276 -17.4162 -17.1491 -17.1246 -17.1242
     8.0469  10.9563  10.9609  11.8540  12.1074  12.1231  12.3847  12.7892
    12.8328  13.7173  13.7536  13.9821  15.4950  15.6764  16.1803

          k = 0.0438 0.0219-0.0219 (  3519 PWs)   bands (ev):

   -43.5381 -41.4171 -41.3804 -41.2289 -19.7796 -19.7794 -19.7775 -17.5597
   -17.5566 -17.5246 -17.4373 -17.4146 -17.3922 -17.1636 -17.1219 -17.1210
     8.3399  11.1204  11.1213  11.6830  12.0325  12.1443  12.3347  12.7290
    12.8992  13.5794  13.6395  14.2742  15.4166  15.4969  15.6645

          k = 0.0547 0.0328-0.0328 (  3515 PWs)   bands (ev):

   -43.5379 -41.4111 -41.3824 -41.2333 -19.7803 -19.7798 -19.7776 -17.5718
   -17.5587 -17.5387 -17.4238 -17.4052 -17.3854 -17.1710 -17.1190 -17.1174
     8.7447  11.3166  11.3406  11.5718  11.8659  12.1988  12.3279  12.6300
    12.9025  13.3970  13.4490  14.6016  14.7139  15.3841  15.6496

          k = 0.0656 0.0438-0.0438 (  3504 PWs)   bands (ev):

   -43.5378 -41.4047 -41.3849 -41.2374 -19.7807 -19.7801 -19.7776 -17.5794
   -17.5620 -17.5426 -17.4124 -17.4000 -17.3938 -17.1694 -17.1167 -17.1143
     9.2374  11.2267  11.5908  11.6084  11.8082  12.2880  12.3806  12.5642
    12.8184  13.1910  13.2115  13.7990  15.2544  15.4105  15.6355

          k = 0.0766 0.0547-0.0547 (  3512 PWs)   bands (ev):

   -43.5377 -41.3991 -41.3878 -41.2403 -19.7809 -19.7804 -19.7775 -17.5819
   -17.5701 -17.5375 -17.4088 -17.4002 -17.3991 -17.1650 -17.1155 -17.1125
     9.7883  10.7431  11.7565  11.8279  11.9880  12.3911  12.4944  12.5431
    12.6551  12.9903  13.0058  13.1414  15.4805  15.6146  15.7212

          k =-0.0547-0.0766 0.0766 (  3507 PWs)   bands (ev):

   -43.5376 -41.3969 -41.3892 -41.2411 -19.7808 -19.7806 -19.7775 -17.5791
   -17.5754 -17.5356 -17.4125 -17.4022 -17.3952 -17.1631 -17.1151 -17.1124
    10.1512  10.3930  11.7905  11.9560  12.0876  12.4127  12.5082  12.5260
    12.6928  12.8491  12.9011  12.9488  15.5612  15.5788  15.6575

          k =-0.0438-0.0656 0.0656 (  3503 PWs)   bands (ev):

   -43.5377 -41.4008 -41.3868 -41.2395 -19.7806 -19.7805 -19.7776 -17.5760
   -17.5712 -17.5404 -17.4091 -17.4084 -17.3910 -17.1653 -17.1152 -17.1140
     9.5961  10.9388  11.6692  11.8250  11.9272  12.3845  12.4366  12.4382
    12.7581  13.0223  13.0867  13.3313  15.5076  15.6032  15.6693

          k =-0.0328-0.0547 0.0547 (  3498 PWs)   bands (ev):

   -43.5378 -41.4068 -41.3840 -41.2361 -19.7804 -19.7799 -19.7778 -17.5717
   -17.5587 -17.5486 -17.4195 -17.4039 -17.3861 -17.1689 -17.1169 -17.1164
     9.0629  11.3617  11.5013  11.5589  11.8232  12.2741  12.3698  12.4996
    12.8396  13.2257  13.3123  14.0572  15.0644  15.4594  15.6140

          k =-0.0219-0.0438 0.0438 (  3511 PWs)   bands (ev):

   -43.5380 -41.4132 -41.3817 -41.2317 -19.7800 -19.7793 -19.7779 -17.5630
   -17.5538 -17.5428 -17.4327 -17.4070 -17.3847 -17.1678 -17.1205 -17.1188
     8.5976  11.2338  11.2941  11.6127  11.9506  12.1978  12.4030  12.5411
    12.8680  13.4272  13.5338  14.5541  14.9085  15.4497  15.6238

          k =-0.0109-0.0328 0.0328 (  3519 PWs)   bands (ev):

   -43.5381 -41.4188 -41.3799 -41.2275 -19.7795 -19.7788 -19.7780 -17.5522
   -17.5486 -17.5258 -17.4472 -17.4158 -17.3988 -17.1574 -17.1238 -17.1220
     8.2283  11.0486  11.0759  11.7504  12.0484  12.1604  12.5335  12.5643
    12.8423  13.5925  13.6983  14.1802  15.4923  15.6398  15.7923

          k = 0.0000-0.0219 0.0219 (  3529 PWs)   bands (ev):

   -43.5383 -41.4230 -41.3787 -41.2244 -19.7789 -19.7784 -19.7780 -17.5372
   -17.5339 -17.5127 -17.4583 -17.4293 -17.4265 -17.1430 -17.1262 -17.1250
     7.9771  10.9159  10.9252  11.9254  12.0961  12.1464  12.5938  12.6027
    12.7754  13.7090  13.7777  13.9509  15.5662  15.6498  16.2088

          k = 0.0438 0.0000 0.0000 (  3535 PWs)   bands (ev):

   -43.5382 -41.4199 -41.3795 -41.2268 -19.7796 -19.7796 -19.7769 -17.5606
   -17.5606 -17.5019 -17.4381 -17.4126 -17.4126 -17.1611 -17.1220 -17.1220
     8.1625  11.0102  11.0206  11.7220  12.1105  12.1191  12.1191  12.9985
    12.9985  13.7727  13.7727  13.9470  15.3416  15.7161  16.1428

          k = 0.0547 0.0109-0.0109 (  3524 PWs)   bands (ev):

   -43.5380 -41.4160 -41.3806 -41.2299 -19.7803 -19.7802 -19.7765 -17.5755
   -17.5738 -17.5060 -17.4276 -17.4000 -17.3939 -17.1765 -17.1190 -17.1187
     8.4084  11.1050  11.1597  11.5625  11.8630  12.1366  12.1758  13.0829
    13.1366  13.6761  13.7201  14.1547  15.1872  15.7187  15.7495

          k = 0.0656 0.0219-0.0219 (  3516 PWs)   bands (ev):

   -43.5379 -41.4107 -41.3822 -41.2339 -19.7810 -19.7806 -19.7765 -17.5868
   -17.5792 -17.5160 -17.4164 -17.3914 -17.3839 -17.1852 -17.1165 -17.1150
     8.7681  11.1722  11.3584  11.5048  11.6468  12.1834  12.2621  13.0241
    13.1981  13.5105  13.5662  14.5313  14.9364  15.1024  15.6965

          k = 0.0766 0.0328-0.0328 (  3507 PWs)   bands (ev):

   -43.5378 -41.4047 -41.3843 -41.2380 -19.7815 -19.7807 -19.7768 -17.5934
   -17.5794 -17.5252 -17.4069 -17.3888 -17.3874 -17.1812 -17.1157 -17.1117
     9.2172  11.0905  11.4651  11.5920  11.6372  12.2626  12.3829  12.8977
    13.1427  13.3244  13.3258  14.1464  15.0413  15.1164  15.5620

          k = 0.0875 0.0438-0.0438 (  3511 PWs)   bands (ev):

   -43.5376 -41.3991 -41.3869 -41.2413 -19.7816 -19.7806 -19.7773 -17.5946
   -17.5794 -17.5305 -17.4122 -17.3880 -17.3873 -17.1703 -17.1174 -17.1097
     9.7251  10.7982  11.4542  11.7896  11.8238  12.3655  12.5557  12.7952
    12.9604  13.0713  13.1524  13.5058  15.2067  15.4424  15.4765

          k =-0.0438-0.0875 0.0875 (  3507 PWs)   bands (ev):

   -43.5376 -41.3954 -41.3893 -41.2427 -19.7815 -19.7804 -19.7778 -17.5902
   -17.5803 -17.5345 -17.4213 -17.3929 -17.3793 -17.1611 -17.1202 -17.1095
    10.2466  10.3714  11.5131  11.8488  11.9980  12.4342  12.7175  12.7313
    12.8240  12.8958  13.0582  13.1230  15.3163  15.3392  15.4172

          k =-0.0328-0.0766 0.0766 (  3503 PWs)   bands (ev):

   -43.5376 -41.3975 -41.3880 -41.2419 -19.7810 -19.7804 -19.7781 -17.5806
   -17.5799 -17.5416 -17.4210 -17.4017 -17.3732 -17.1602 -17.1202 -17.1111
     9.8614  10.7680  11.5260  11.7644  11.9995  12.3939  12.5141  12.6564
    12.9333  12.9860  13.1203  13.2839  15.2200  15.4660  15.4861

          k =-0.0219-0.0656 0.0656 (  3501 PWs)   bands (ev):

   -43.5377 -41.4028 -41.3853 -41.2391 -19.7805 -19.7804 -19.7781 -17.5767
   -17.5666 -17.5517 -17.4137 -17.4123 -17.3704 -17.1665 -17.1179 -17.1141
     9.3605  11.1720  11.4797  11.6746  11.7740  12.3549  12.4106  12.5921
    12.9934  13.1050  13.2953  13.9009  15.2231  15.2861  15.4266

          k =-0.0109-0.0547 0.0547 (  3505 PWs)   bands (ev):

   -43.5378 -41.4088 -41.3830 -41.2351 -19.7805 -19.7797 -19.7779 -17.5701
   -17.5601 -17.5502 -17.4275 -17.4027 -17.3732 -17.1718 -17.1178 -17.1170
     8.8985  11.2805  11.4813  11.4976  11.7518  12.2498  12.4481  12.5785
    12.9809  13.2930  13.4969  14.6615  14.7804  15.3522  15.3816

          k = 0.0000-0.0438 0.0438 (  3515 PWs)   bands (ev):

   -43.5380 -41.4144 -41.3812 -41.2309 -19.7802 -19.7791 -19.7779 -17.5615
   -17.5602 -17.5344 -17.4406 -17.4006 -17.3852 -17.1685 -17.1213 -17.1187
     8.5115  11.1669  11.2549  11.5948  11.9099  12.1914  12.4923  12.5767
    12.9342  13.4597  13.6474  14.4021  15.4073  15.4376  15.6273

          k = 0.0656 0.0000 0.0000 (  3519 PWs)   bands (ev):

   -43.5380 -41.4130 -41.3812 -41.2324 -19.7811 -19.7811 -19.7757 -17.5903
   -17.5903 -17.4986 -17.4105 -17.3873 -17.3873 -17.1953 -17.1152 -17.1152
     8.6062  11.0763  11.2772  11.4635  11.6204  12.1476  12.1476  13.3634
    13.3634  13.7589  13.7589  14.1338  14.9263  15.7222  15.7222

          k = 0.0766 0.0109-0.0109 (  3514 PWs)   bands (ev):

   -43.5378 -41.4086 -41.3824 -41.2359 -19.7819 -19.7818 -19.7754 -17.6017
   -17.5999 -17.5001 -17.3985 -17.3786 -17.3786 -17.2085 -17.1118 -17.1112
     8.9179  10.9907  11.3870  11.4584  11.4807  12.1834  12.2040  13.4677
    13.5157  13.6703  13.6896  14.3912  14.7430  15.1842  15.4463

          k = 0.0875 0.0219-0.0219 (  3499 PWs)   bands (ev):

   -43.5377 -41.4034 -41.3840 -41.2397 -19.7824 -19.7820 -19.7756 -17.6084
   -17.6029 -17.5043 -17.3951 -17.3790 -17.3746 -17.2050 -17.1109 -17.1078
     9.3188  10.8874  11.2044  11.5654  11.6789  12.2481  12.3228  13.3879
    13.4642  13.5221  13.5257  14.4787  14.7265  14.8409  15.2377

          k = 0.0984 0.0328-0.0328 (  3501 PWs)   bands (ev):

   -43.5376 -41.3983 -41.3861 -41.2429 -19.7826 -19.7817 -19.7763 -17.6095
   -17.6026 -17.5072 -17.4129 -17.3754 -17.3720 -17.1881 -17.1143 -17.1057
     9.7769  10.7323  11.1319  11.6349  11.9021  12.3404  12.5101  13.1640
    13.2207  13.3659  13.3735  13.8667  14.8379  15.1192  15.3823

          k =-0.0328-0.0984 0.0984 (  3508 PWs)   bands (ev):

   -43.5375 -41.3942 -41.3886 -41.2447 -19.7824 -19.7810 -19.7773 -17.6049
   -17.6003 -17.5116 -17.4312 -17.3807 -17.3638 -17.1678 -17.1220 -17.1055
    10.2544  10.4651  11.1885  11.6246  12.0808  12.4346  12.7792  12.8973
    13.0703  13.0904  13.2603  13.4469  15.0107  15.1106  15.1762

          k =-0.0219-0.0875 0.0875 (  3502 PWs)   bands (ev):

   -43.5375 -41.3939 -41.3890 -41.2445 -19.7819 -19.7802 -19.7784 -17.5953
   -17.5950 -17.5231 -17.4364 -17.3899 -17.3583 -17.1533 -17.1297 -17.1071
    10.1078  10.7081  11.2883  11.5391  12.1570  12.4139  12.7643  12.8507
    12.9161  13.1644  13.2263  13.2737  14.9251  15.2054  15.2167

          k =-0.0109-0.0766 0.0766 (  3501 PWs)   bands (ev):

   -43.5376 -41.3982 -41.3867 -41.2423 -19.7812 -19.7800 -19.7788 -17.5874
   -17.5809 -17.5401 -17.4284 -17.4021 -17.3568 -17.1572 -17.1256 -17.1102
     9.6969  11.0730  11.3653  11.4814  12.0189  12.3763  12.5128  12.8207
    12.9730  13.1130  13.2904  13.7442  14.7699  15.3863  15.4185

          k = 0.0000-0.0656 0.0656 (  3499 PWs)   bands (ev):

   -43.5377 -41.4035 -41.3847 -41.2389 -19.7805 -19.7804 -19.7783 -17.5779
   -17.5647 -17.5551 -17.4156 -17.4143 -17.3613 -17.1675 -17.1190 -17.1141
     9.2782  11.2334  11.4560  11.5461  11.7551  12.3440  12.3996  12.7156
    13.0502  13.1380  13.4011  14.3322  14.8221  15.1152  15.3846

          k = 0.0875 0.0000 0.0000 (  3503 PWs)   bands (ev):

   -43.5377 -41.4052 -41.3831 -41.2388 -19.7827 -19.7827 -19.7747 -17.6138
   -17.6138 -17.4946 -17.3810 -17.3693 -17.3693 -17.2315 -17.1071 -17.1071
     9.1808  10.8186  11.1514  11.4915  11.6277  12.2030  12.2030  13.7652
    13.7652  13.8030  13.8030  14.3895  14.3915  15.1603  15.1603

          k = 0.0984 0.0109-0.0109 (  3496 PWs)   bands (ev):

   -43.5376 -41.4011 -41.3841 -41.2420 -19.7834 -19.7832 -19.7745 -17.6212
   -17.6203 -17.4936 -17.3751 -17.3670 -17.3645 -17.2365 -17.1047 -17.1036
     9.5321  10.6940  10.9685  11.5066  11.8424  12.2467  12.2692  13.6327
    13.7008  13.9019  13.9195  14.2784  14.6813  14.7240  14.9396

          k = 0.1094 0.0219-0.0219 (  3492 PWs)   bands (ev):

   -43.5375 -41.3970 -41.3856 -41.2449 -19.7836 -19.7831 -19.7750 -17.6231
   -17.6219 -17.4910 -17.4006 -17.3644 -17.3583 -17.2182 -17.1069 -17.1014
     9.9374  10.6084  10.8662  11.4859  12.0615  12.3198  12.4125  13.2835
    13.5480  13.8015  13.8132  14.1777  14.4271  14.8091  15.1792

          k =-0.0219-0.1094 0.1094 (  3491 PWs)   bands (ev):

   -43.5375 -41.3935 -41.3875 -41.2466 -19.7835 -19.7823 -19.7760 -17.6198
   -17.6192 -17.4858 -17.4337 -17.3689 -17.3517 -17.1907 -17.1149 -17.1012
    10.3517  10.4922  10.8963  11.4017  12.2266  12.4251  12.6422  12.9421
    13.3980  13.5214  13.5849  13.7549  14.6503  14.7987  15.2549

          k =-0.0109-0.0984 0.0984 (  3499 PWs)   bands (ev):

   -43.5375 -41.3911 -41.3897 -41.2467 -19.7829 -19.7812 -19.7774 -17.6132
   -17.6100 -17.4913 -17.4521 -17.3774 -17.3485 -17.1633 -17.1278 -17.1029
    10.2856  10.7600  11.0279  11.2827  12.3109  12.4590  12.7550  12.9488
    13.1488  13.2732  13.3844  13.4648  14.8969  14.9246  14.9528

          k = 0.0000-0.0875 0.0875 (  3500 PWs)   bands (ev):

   -43.5375 -41.3939 -41.3884 -41.2451 -19.7821 -19.7799 -19.7788 -17.6016
   -17.5965 -17.5163 -17.4442 -17.3890 -17.3498 -17.1432 -17.1408 -17.1062
    10.0198  11.0493  11.1457  11.2981  12.2508  12.3641  12.7873  12.8374
    13.0214  13.2278  13.3265  13.4244  14.7222  15.1450  15.1567

          k = 0.1094 0.0000 0.0000 (  3503 PWs)   bands (ev):

   -43.5376 -41.3983 -41.3846 -41.2445 -19.7841 -19.7841 -19.7739 -17.6298
   -17.6298 -17.4911 -17.3584 -17.3584 -17.3564 -17.2615 -17.0999 -17.0999
     9.8314  10.5512  10.7945  11.4332  12.0605  12.2626  12.2626  13.8006
    13.8448  13.8448  14.2144  14.2144  14.7064  14.7064  14.7079

          k = 0.1203 0.0109-0.0109 (  3486 PWs)   bands (ev):

   -43.5375 -41.3954 -41.3853 -41.2467 -19.7845 -19.7843 -19.7739 -17.6332
   -17.6330 -17.4882 -17.3733 -17.3567 -17.3483 -17.2542 -17.0995 -17.0978
    10.1766  10.4853  10.6913  11.3225  12.2689  12.3243  12.3278  13.3643
    13.8064  14.0602  14.2181  14.2497  14.4169  14.5580  15.0288

          k =-0.0109-0.1203 0.1203 (  3485 PWs)   bands (ev):

   -43.5374 -41.3931 -41.3864 -41.2480 -19.7844 -19.7837 -19.7747 -17.6323
   -17.6305 -17.4804 -17.4106 -17.3597 -17.3440 -17.2241 -17.1050 -17.0976
    10.4221  10.5644  10.6887  11.1721  12.3272  12.4754  12.5163  12.9678
    13.6768  13.8984  13.9792  14.1312  14.3435  14.5138  15.4041

          k = 0.0000-0.1094 0.1094 (  3492 PWs)   bands (ev):

   -43.5374 -41.3915 -41.3881 -41.2480 -19.7838 -19.7826 -19.7760 -17.6261
   -17.6225 -17.4686 -17.4511 -17.3669 -17.3439 -17.1909 -17.1156 -17.0995
    10.3882  10.7834  10.8345  11.0773  12.3600  12.6419  12.6636  12.6996
    13.5239  13.5729  13.5773  13.7890  14.6186  14.6480  15.1808

          k = 0.1313 0.0000 0.0000 (  3495 PWs)   bands (ev):

   -43.5374 -41.3941 -41.3854 -41.2481 -19.7849 -19.7849 -19.7735 -17.6378
   -17.6378 -17.4890 -17.3533 -17.3533 -17.3424 -17.2784 -17.0957 -17.0957
    10.3656  10.4974  10.6037  11.1385  12.3011  12.3011  12.5369  13.2367
    13.9681  13.9681  14.3171  14.3171  14.5781  14.5781  15.0589

          k = 0.0000-0.1313 0.1313 (  3500 PWs)   bands (ev):

   -43.5374 -41.3933 -41.3858 -41.2485 -19.7849 -19.7847 -19.7737 -17.6377
   -17.6370 -17.4860 -17.3742 -17.3543 -17.3410 -17.2601 -17.0976 -17.0956
    10.3849  10.5944  10.6706  11.0168  12.3161  12.3513  12.6702  13.0053
    13.9121  14.0893  14.1320  14.3134  14.4414  14.4766  15.3108

          k = 0.0438 0.0219 0.0000 (  3518 PWs)   bands (ev):

   -43.5381 -41.4185 -41.3800 -41.2279 -19.7797 -19.7793 -19.7773 -17.5598
   -17.5593 -17.5135 -17.4431 -17.4075 -17.4021 -17.1626 -17.1224 -17.1211
     8.2516  11.0563  11.0798  11.6958  12.0069  12.1470  12.2890  12.8541
    12.9521  13.6295  13.7365  14.1251  15.3791  15.6889  15.9934

          k = 0.0547 0.0328-0.0109 (  3510 PWs)   bands (ev):

   -43.5380 -41.4134 -41.3814 -41.2317 -19.7804 -19.7798 -19.7772 -17.5723
   -17.5668 -17.5251 -17.4315 -17.3997 -17.3843 -17.1739 -17.1195 -17.1178
     8.5772  11.1926  11.2674  11.5542  11.8438  12.1829  12.3055  12.8163
    13.0212  13.4823  13.6228  14.4327  15.2138  15.2957  15.6763

          k = 0.0656 0.0438-0.0219 (  3510 PWs)   bands (ev):

   -43.5378 -41.4075 -41.3835 -41.2360 -19.7808 -19.7802 -19.7774 -17.5821
   -17.5662 -17.5374 -17.4180 -17.4006 -17.3787 -17.1751 -17.1170 -17.1151
     9.0020  11.2581  11.4579  11.5627  11.6839  12.2508  12.3649  12.7129
    13.0253  13.2978  13.4221  14.3775  14.8872  15.2842  15.5799

          k = 0.0766 0.0547-0.0328 (  3510 PWs)   bands (ev):

   -43.5377 -41.4014 -41.3860 -41.2397 -19.7811 -19.7804 -19.7776 -17.5881
   -17.5657 -17.5429 -17.4105 -17.4046 -17.3801 -17.1685 -17.1172 -17.1123
     9.4974  11.0141  11.5451  11.6746  11.8347  12.3535  12.4507  12.6357
    12.9500  13.0965  13.1974  13.6472  15.3297  15.4378  15.4805

          k =-0.0547-0.0766 0.0984 (  3503 PWs)   bands (ev):

   -43.5376 -41.3967 -41.3887 -41.2419 -19.7813 -19.7804 -19.7778 -17.5907
   -17.5686 -17.5414 -17.4183 -17.3960 -17.3835 -17.1620 -17.1186 -17.1106
    10.0273  10.5611  11.6121  11.7838  12.0582  12.4595  12.5033  12.6653
    12.8574  12.9324  13.0367  13.1175  15.4117  15.4301  15.4802

          k = 0.0656 0.0219 0.0000 (  3518 PWs)   bands (ev):

   -43.5379 -41.4118 -41.3817 -41.2332 -19.7810 -19.7809 -19.7762 -17.5886
   -17.5844 -17.5078 -17.4159 -17.3915 -17.3810 -17.1899 -17.1157 -17.1153
     8.6870  11.1237  11.3177  11.4831  11.6311  12.1769  12.2026  13.1986
    13.2652  13.5837  13.6865  14.3527  15.0239  15.4128  15.5331

          k = 0.0766 0.0328-0.0109 (  3502 PWs)   bands (ev):

   -43.5378 -41.4066 -41.3833 -41.2371 -19.7815 -19.7813 -19.7763 -17.5994
   -17.5861 -17.5148 -17.4048 -17.3949 -17.3712 -17.1922 -17.1138 -17.1120
     9.0657  11.0642  11.4209  11.4804  11.5908  12.2391  12.2961  13.1561
    13.3150  13.4254  13.5322  14.6851  14.7418  14.9689  15.2798

          k = 0.0875 0.0438-0.0219 (  3509 PWs)   bands (ev):

   -43.5377 -41.4010 -41.3854 -41.2408 -19.7820 -19.7811 -19.7768 -17.6067
   -17.5822 -17.5219 -17.4112 -17.3907 -17.3694 -17.1819 -17.1156 -17.1089
     9.5149  10.9276  11.2931  11.5814  11.8316  12.3279  12.4432  13.0291
    13.2156  13.2532  13.3243  13.9927  15.0206  15.1535  15.2520

          k =-0.0438-0.0875 0.1094 (  3506 PWs)   bands (ev):

   -43.5376 -41.3961 -41.3879 -41.2434 -19.7821 -19.7806 -19.7776 -17.6100
   -17.5759 -17.5281 -17.4258 -17.3826 -17.3707 -17.1669 -17.1212 -17.1073
     9.9976  10.6443  11.3085  11.6230  12.0702  12.4310  12.6340  12.9165
    12.9764  13.0952  13.1813  13.4582  15.1313  15.1529  15.3208

          k =-0.0328-0.0766 0.0984 (  3504 PWs)   bands (ev):

   -43.5376 -41.3940 -41.3893 -41.2440 -19.7820 -19.7801 -19.7783 -17.6088
   -17.5683 -17.5362 -17.4319 -17.3851 -17.3674 -17.1571 -17.1262 -17.1074
    10.2482  10.4720  11.3745  11.5883  12.1949  12.4762  12.6559  12.8583
    12.9178  13.0484  13.1403  13.2079  15.1057  15.2335  15.3029

          k =-0.0219-0.0656 0.0875 (  3502 PWs)   bands (ev):

   -43.5376 -41.3976 -41.3872 -41.2425 -19.7816 -19.7802 -19.7782 -17.6033
   -17.5604 -17.5463 -17.4264 -17.3951 -17.3633 -17.1615 -17.1231 -17.1093
     9.7974  10.8814  11.3900  11.5421  12.0611  12.4426  12.5014  12.8079
    12.9847  13.1070  13.2153  13.5624  14.9754  15.3299  15.4000

          k =-0.0109-0.0547 0.0766 (  3501 PWs)   bands (ev):

   -43.5377 -41.4029 -41.3849 -41.2394 -19.7810 -19.7806 -19.7777 -17.5943
   -17.5633 -17.5444 -17.4135 -17.4079 -17.3633 -17.1723 -17.1178 -17.1125
     9.3396  11.1392  11.4375  11.5055  11.7929  12.3442  12.4019  12.8142
    13.1147  13.1662  13.3753  14.1916  14.9676  15.1449  15.2616

          k = 0.0000-0.0438 0.0656 (  3507 PWs)   bands (ev):

   -43.5378 -41.4084 -41.3829 -41.2355 -19.7808 -19.7803 -19.7773 -17.5833
   -17.5698 -17.5335 -17.4213 -17.4013 -17.3705 -17.1781 -17.1162 -17.1161
     8.9202  11.2203  11.4197  11.5505  11.6420  12.2464  12.3406  12.8469
    13.0885  13.3374  13.5377  14.7162  14.8750  15.1523  15.2354

          k = 0.0875 0.0219-0.0000 (  3499 PWs)   bands (ev):

   -43.5377 -41.4043 -41.3835 -41.2393 -19.7825 -19.7824 -19.7752 -17.6139
   -17.6051 -17.4996 -17.3853 -17.3851 -17.3656 -17.2166 -17.1089 -17.1077
     9.2490  10.8606  11.1752  11.5145  11.6653  12.2414  12.2508  13.5458
    13.6192  13.6290  13.6528  14.5942  14.6341  14.8795  15.0437

          k = 0.0984 0.0328-0.0109 (  3498 PWs)   bands (ev):

   -43.5376 -41.3996 -41.3850 -41.2426 -19.7830 -19.7824 -19.7755 -17.6231
   -17.6023 -17.5006 -17.4048 -17.3741 -17.3606 -17.2067 -17.1101 -17.1048
     9.6494  10.7636  11.0236  11.5334  11.9066  12.3156  12.3782  13.3641
    13.4290  13.5540  13.6320  14.2904  14.6419  14.8790  15.0673

          k =-0.0328-0.0984 0.1203 (  3496 PWs)   bands (ev):

   -43.5375 -41.3953 -41.3870 -41.2452 -19.7831 -19.7817 -19.7764 -17.6278
   -17.5946 -17.5017 -17.4298 -17.3679 -17.3592 -17.1857 -17.1167 -17.1032
    10.0803  10.6263  10.9957  11.4939  12.1396  12.4105  12.5860  13.0734
    13.2700  13.3851  13.4692  13.7639  14.7983  14.8666  15.3402

          k =-0.0219-0.0875 0.1094 (  3503 PWs)   bands (ev):

   -43.5375 -41.3921 -41.3892 -41.2461 -19.7829 -19.7807 -19.7777 -17.6272
   -17.5837 -17.5090 -17.4455 -17.3725 -17.3546 -17.1628 -17.1281 -17.1035
    10.3884  10.5057  11.0881  11.3952  12.3000  12.4910  12.8436  12.8602
    13.1056  13.1821  13.3118  13.4224  14.9714  14.9981  15.0549

          k =-0.0109-0.0766 0.0984 (  3505 PWs)   bands (ev):

   -43.5375 -41.3937 -41.3885 -41.2453 -19.7824 -19.7796 -19.7789 -17.6204
   -17.5704 -17.5273 -17.4435 -17.3825 -17.3520 -17.1498 -17.1361 -17.1055
    10.0809  10.8650  11.1776  11.3404  12.2901  12.4496  12.7429  12.8756
    13.0007  13.2291  13.2755  13.3951  14.7900  15.1741  15.2074

          k = 0.0000-0.0656 0.0875 (  3499 PWs)   bands (ev):

   -43.5376 -41.3980 -41.3865 -41.2428 -19.7817 -19.7802 -19.7784 -17.6086
   -17.5565 -17.5480 -17.4303 -17.3951 -17.3543 -17.1616 -17.1251 -17.1088
     9.7156  11.0691  11.2558  11.4229  12.0621  12.4303  12.5020  12.9033
    13.0193  13.1753  13.3079  13.8545  14.6828  15.3086  15.4011

          k = 0.1094 0.0219 0.0000 (  3492 PWs)   bands (ev):

   -43.5375 -41.3976 -41.3850 -41.2448 -19.7839 -19.7836 -19.7745 -17.6323
   -17.6197 -17.4908 -17.3873 -17.3601 -17.3551 -17.2359 -17.1036 -17.1007
     9.8826  10.5958  10.8206  11.4519  12.0696  12.3138  12.3163  13.4590
    13.6333  13.9692  14.0171  14.2702  14.4408  14.6870  14.9651

          k =-0.0219-0.1094 0.1313 (  3489 PWs)   bands (ev):

   -43.5375 -41.3944 -41.3863 -41.2469 -19.7841 -19.7831 -19.7751 -17.6391
   -17.6126 -17.4855 -17.4187 -17.3569 -17.3498 -17.2149 -17.1081 -17.0993
    10.2560  10.5517  10.7568  11.3386  12.2837  12.3987  12.4629  13.1357
    13.5083  13.7993  13.8847  14.0108  14.4619  14.6327  15.3961

          k =-0.0109-0.0984 0.1203 (  3495 PWs)   bands (ev):

   -43.5375 -41.3918 -41.3880 -41.2478 -19.7838 -19.7821 -19.7763 -17.6400
   -17.6011 -17.4784 -17.4532 -17.3615 -17.3462 -17.1866 -17.1185 -17.0998
    10.4435  10.6360  10.8330  11.1857  12.3914  12.5466  12.6952  12.8356
    13.3942  13.4959  13.5511  13.7006  14.6962  14.7281  15.2141

          k = 0.0000-0.0875 0.1094 (  3502 PWs)   bands (ev):

   -43.5375 -41.3904 -41.3900 -41.2472 -19.7832 -19.7807 -19.7777 -17.6336
   -17.5864 -17.4969 -17.4579 -17.3706 -17.3465 -17.1597 -17.1326 -17.1021
    10.3020  10.9121  10.9391  11.1393  12.4334  12.5080  12.7657  12.9804
    13.1028  13.2978  13.3234  13.4473  14.9263  14.9304  14.9540

          k =-0.0109-0.1203 0.1422 (  3482 PWs)   bands (ev):

   -43.5374 -41.3936 -41.3859 -41.2481 -19.7847 -19.7842 -19.7741 -17.6419
   -17.6271 -17.4846 -17.3919 -17.3526 -17.3432 -17.2453 -17.1006 -17.0966
    10.4063  10.5381  10.6304  11.1503  12.3474  12.3604  12.5293  13.0936
    13.7549  14.0605  14.1610  14.2729  14.3113  14.4576  15.3105

          k = 0.0000-0.1094 0.1313 (  3488 PWs)   bands (ev):

   -43.5374 -41.3924 -41.3867 -41.2485 -19.7845 -19.7834 -19.7750 -17.6448
   -17.6161 -17.4774 -17.4269 -17.3543 -17.3424 -17.2175 -17.1076 -17.0973
    10.4479  10.6583  10.7382  11.0286  12.3860  12.4956  12.6686  12.8399
    13.6093  13.7660  13.9244  14.0343  14.4609  14.5162  15.4276

          k = 0.0875 0.0438 0.0000 (  3510 PWs)   bands (ev):

   -43.5377 -41.4017 -41.3848 -41.2407 -19.7820 -19.7815 -19.7765 -17.6130
   -17.5812 -17.5194 -17.4118 -17.3919 -17.3597 -17.1878 -17.1146 -17.1089
     9.4401  10.9673  11.2308  11.5003  11.8347  12.3419  12.3722  13.1548
    13.2947  13.3548  13.4148  14.3658  14.8222  14.9612  15.0647

          k =-0.0438-0.0875 0.1313 (  3502 PWs)   bands (ev):

   -43.5376 -41.3970 -41.3866 -41.2438 -19.7825 -19.7809 -19.7773 -17.6241
   -17.5690 -17.5269 -17.4308 -17.3798 -17.3561 -17.1738 -17.1210 -17.1060
     9.8512  10.8529  11.1199  11.4625  12.1171  12.4509  12.5217  13.0555
    13.1319  13.2690  13.3158  13.8155  14.7763  15.0544  15.4036

          k =-0.0328-0.0766 0.1203 (  3504 PWs)   bands (ev):

   -43.5375 -41.3931 -41.3888 -41.2456 -19.7828 -19.7799 -19.7783 -17.6303
   -17.5551 -17.5366 -17.4433 -17.3706 -17.3577 -17.1578 -17.1315 -17.1043
    10.2525  10.6025  11.1568  11.3790  12.3568  12.5446  12.6936  12.9267
    13.0380  13.1797  13.2224  13.3816  14.9182  15.1561  15.1961

          k =-0.0328-0.0984 0.1422 (  3491 PWs)   bands (ev):

   -43.5375 -41.3958 -41.3863 -41.2454 -19.7834 -19.7820 -19.7761 -17.6368
   -17.5909 -17.5004 -17.4298 -17.3638 -17.3527 -17.1947 -17.1146 -17.1023
    10.0150  10.7162  10.8869  11.4269  12.1829  12.4485  12.4613  13.2399
    13.2758  13.4714  13.6187  13.9506  14.6834  14.7402  15.4165

          k =-0.0219-0.0875 0.1313 (  3501 PWs)   bands (ev):

   -43.5375 -41.3925 -41.3879 -41.2471 -19.7836 -19.7811 -19.7772 -17.6451
   -17.5743 -17.5057 -17.4522 -17.3565 -17.3510 -17.1746 -17.1255 -17.1010
    10.3636  10.6397  10.8798  11.2675  12.4485  12.5493  12.6722  13.0252
    13.1865  13.2890  13.4683  13.5434  14.7808  14.9144  15.2686

          k =-0.0109-0.0766 0.1203 (  3499 PWs)   bands (ev):

   -43.5375 -41.3905 -41.3896 -41.2475 -19.7835 -19.7797 -19.7786 -17.6457
   -17.5558 -17.5233 -17.4579 -17.3590 -17.3490 -17.1532 -17.1407 -17.1013
    10.4330  10.6793  10.9698  11.1523  12.5773  12.6143  12.8897  12.8945
    13.0511  13.1992  13.2436  13.3785  14.9714  15.0138  15.0994

          k = 0.0000-0.0656 0.1094 (  3505 PWs)   bands (ev):

   -43.5375 -41.3932 -41.3881 -41.2462 -19.7831 -19.7799 -19.7784 -17.6382
   -17.5475 -17.5388 -17.4487 -17.3681 -17.3497 -17.1591 -17.1334 -17.1032
    10.1733  10.8630  10.9506  11.2866  12.4074  12.5748  12.6787  12.9865
    13.0691  13.2137  13.3322  13.4772  14.7613  15.1773  15.2577

          k =-0.0109-0.0984 0.1422 (  3487 PWs)   bands (ev):

   -43.5374 -41.3923 -41.3872 -41.2482 -19.7842 -19.7824 -19.7759 -17.6500
   -17.5962 -17.4798 -17.4507 -17.3507 -17.3453 -17.1982 -17.1154 -17.0985
    10.5037  10.6363  10.6993  11.1366  12.4914  12.5281  12.5884  12.9641
    13.3716  13.6000  13.6831  13.7781  14.6505  14.6649  15.4685

          k = 0.0000-0.0875 0.1313 (  3486 PWs)   bands (ev):

   -43.5374 -41.3908 -41.3884 -41.2484 -19.7840 -19.7811 -19.7771 -17.6526
   -17.5763 -17.4898 -17.4682 -17.3518 -17.3448 -17.1748 -17.1277 -17.0992
    10.5317  10.7618  10.7956  11.0047  12.5675  12.7405  12.7879  12.7907
    13.2443  13.3351  13.3598  13.5612  14.8399  14.8521  15.2186

          k =-0.0109-0.0766 0.1422 (  3489 PWs)   bands (ev):

   -43.5374 -41.3904 -41.3889 -41.2483 -19.7839 -19.7798 -19.7784 -17.6548
   -17.5486 -17.5229 -17.4647 -17.3491 -17.3473 -17.1581 -17.1402 -17.0998
    10.5666  10.7533  10.7741  11.0438  12.7200  12.7491  12.8034  13.0247
    13.0365  13.0974  13.2542  13.4142  14.9387  15.0735  15.1856

     the Fermi energy is    13.2951 ev

!    total energy              =    -470.35417240 Ry
     Harris-Foulkes estimate   =    -470.35417240 Ry
     estimated scf accuracy    <          8.3E-11 Ry

     The total energy is the sum of the following terms:

     one-electron contribution =    -124.17146874 Ry
     hartree contribution      =      79.29947752 Ry
     xc contribution           =     -69.12124162 Ry
     ewald contribution        =    -356.35960064 Ry
     smearing contrib. (-TS)   =      -0.00133892 Ry

     convergence has been achieved in  43 iterations

     Forces acting on atoms (Ry/au):

     atom    1 type  2   force =     0.00000000    0.00000000    0.00000000
     atom    2 type  1   force =     0.00000000    0.00000000    0.00000000
     atom    3 type  1   force =     0.00000000   -0.00000000    0.00000000
     atom    4 type  1   force =     0.00000000   -0.00000000    0.00000000

     Total force =     0.000000     Total SCF correction =     0.000000


     entering subroutine stress ...

          total   stress  (Ry/bohr**3)                   (kbar)     P= -210.97
  -0.00143413  -0.00000000  -0.00000000       -210.97     -0.00     -0.00
  -0.00000000  -0.00143413   0.00000000         -0.00   -210.97      0.00
  -0.00000000  -0.00000000  -0.00143413         -0.00     -0.00   -210.97


     BFGS Geometry Optimization

     number of scf cycles    =   1
     number of bfgs steps    =   0

     enthalpy new            =    -470.3541723986 Ry

     new trust radius        =       0.1736831772 bohr
     new conv_thr            =            1.0E-10 Ry

     new unit-cell volume =    525.80627 a.u.^3 (    77.91645 Ang^3 )

CELL_PARAMETERS (alat=  1.88972599)
  -0.000000000   3.390000421   3.390000421
   3.390000421  -0.000000000   3.390000421
   3.390000421   3.390000421  -0.000000000

ATOMIC_POSITIONS (angstrom)
Ti       1.695000210   1.695000210   1.695000210
Nb       3.390000421   3.390000421   3.390000421
Nb       5.085000631   5.085000631   5.085000631
Nb       6.780000842   6.780000842   6.780000842


     NEW-OLD atomic charge density approx. for the potential
     extrapolated charge   45.21297, renormalised to   51.00000

     total cpu time spent up to now is      706.7 secs

     per-process dynamical memory:   132.9 Mb

     Self-consistent Calculation

     iteration #  1     ecut=    50.00 Ry     beta=0.60
     Davidson diagonalization with overlap
     c_bands:  1 eigenvalues not converged
     c_bands:  1 eigenvalues not converged
     c_bands:  1 eigenvalues not converged
     c_bands:  1 eigenvalues not converged
     c_bands:  1 eigenvalues not converged
     c_bands:  1 eigenvalues not converged
     c_bands:  1 eigenvalues not converged
     c_bands:  1 eigenvalues not converged
     ethr =  1.00E-06,  avg # of iterations = 14.2

     total cpu time spent up to now is      760.5 secs

     total energy              =    -450.20960887 Ry
     Harris-Foulkes estimate   =    -479.89852293 Ry
     estimated scf accuracy    <      22.60245814 Ry

     iteration #  2     ecut=    50.00 Ry     beta=0.60
     Davidson diagonalization with overlap
     ethr =  1.00E-02,  avg # of iterations =  7.2

     total cpu time spent up to now is      789.5 secs

     total energy              =    -464.51580520 Ry
     Harris-Foulkes estimate   =    -494.70814864 Ry
     estimated scf accuracy    <      88.61102388 Ry

     iteration #  3     ecut=    50.00 Ry     beta=0.60
     Davidson diagonalization with overlap
     ethr =  1.00E-02,  avg # of iterations =  4.2

     total cpu time spent up to now is      811.0 secs

     total energy              =    -471.92885431 Ry
     Harris-Foulkes estimate   =    -473.58660713 Ry
     estimated scf accuracy    <       7.57343486 Ry

     iteration #  4     ecut=    50.00 Ry     beta=0.60
     Davidson diagonalization with overlap
     ethr =  1.00E-02,  avg # of iterations =  1.0

     total cpu time spent up to now is      824.0 secs

     total energy              =    -471.45192716 Ry
     Harris-Foulkes estimate   =    -472.05785074 Ry
     estimated scf accuracy    <       4.93167573 Ry

     iteration #  5     ecut=    50.00 Ry     beta=0.60
     Davidson diagonalization with overlap
     ethr =  9.67E-03,  avg # of iterations =  1.0

     total cpu time spent up to now is      837.1 secs

     total energy              =    -470.66595505 Ry
     Harris-Foulkes estimate   =    -471.51225891 Ry
     estimated scf accuracy    <       3.68806571 Ry

     iteration #  6     ecut=    50.00 Ry     beta=0.60
     Davidson diagonalization with overlap
     ethr =  7.23E-03,  avg # of iterations =  1.0

     total cpu time spent up to now is      850.2 secs

     total energy              =    -470.64403991 Ry
     Harris-Foulkes estimate   =    -470.72226857 Ry
     estimated scf accuracy    <       2.17402382 Ry

     iteration #  7     ecut=    50.00 Ry     beta=0.60
     Davidson diagonalization with overlap
     ethr =  4.26E-03,  avg # of iterations =  1.2

     total cpu time spent up to now is      863.3 secs

     total energy              =    -470.28320539 Ry
     Harris-Foulkes estimate   =    -470.67146292 Ry
     estimated scf accuracy    <       1.92795573 Ry

     iteration #  8     ecut=    50.00 Ry     beta=0.60
     Davidson diagonalization with overlap
     ethr =  3.78E-03,  avg # of iterations =  3.1

     total cpu time spent up to now is      878.1 secs

     total energy              =    -470.51308858 Ry
     Harris-Foulkes estimate   =    -470.42217036 Ry
     estimated scf accuracy    <       0.38061556 Ry

     iteration #  9     ecut=    50.00 Ry     beta=0.60
     Davidson diagonalization with overlap
     ethr =  7.46E-04,  avg # of iterations =  4.7

     total cpu time spent up to now is      895.7 secs

     total energy              =    -470.55537218 Ry
     Harris-Foulkes estimate   =    -470.56626823 Ry
     estimated scf accuracy    <       0.69111811 Ry

     iteration # 10     ecut=    50.00 Ry     beta=0.60
     Davidson diagonalization with overlap
     ethr =  7.46E-04,  avg # of iterations =  1.1

     total cpu time spent up to now is      908.8 secs

     total energy              =    -470.04068304 Ry
     Harris-Foulkes estimate   =    -470.55659864 Ry
     estimated scf accuracy    <       0.64317146 Ry

     iteration # 11     ecut=    50.00 Ry     beta=0.60
     Davidson diagonalization with overlap
     ethr =  7.46E-04,  avg # of iterations =  4.9

     total cpu time spent up to now is      933.6 secs

     total energy              =    -467.73298639 Ry
     Harris-Foulkes estimate   =    -472.45278353 Ry
     estimated scf accuracy    <      28.53929194 Ry

     iteration # 12     ecut=    50.00 Ry     beta=0.60
     Davidson diagonalization with overlap
     ethr =  7.46E-04,  avg # of iterations =  6.6

     total cpu time spent up to now is      960.3 secs

     total energy              =    -471.06324368 Ry
     Harris-Foulkes estimate   =    -470.55236351 Ry
     estimated scf accuracy    <       0.85001218 Ry

     iteration # 13     ecut=    50.00 Ry     beta=0.60
     Davidson diagonalization with overlap
     ethr =  7.46E-04,  avg # of iterations =  4.9

     total cpu time spent up to now is      981.0 secs

     total energy              =    -470.91563250 Ry
     Harris-Foulkes estimate   =    -471.23489261 Ry
     estimated scf accuracy    <       3.11816966 Ry

     iteration # 14     ecut=    50.00 Ry     beta=0.60
     Davidson diagonalization with overlap
     ethr =  7.46E-04,  avg # of iterations =  1.0

     total cpu time spent up to now is      994.1 secs

     total energy              =    -470.55598843 Ry
     Harris-Foulkes estimate   =    -470.92362781 Ry
     estimated scf accuracy    <       2.52772774 Ry

     iteration # 15     ecut=    50.00 Ry     beta=0.60
     Davidson diagonalization with overlap
     ethr =  7.46E-04,  avg # of iterations =  3.0

     total cpu time spent up to now is     1010.3 secs

     total energy              =    -470.44808111 Ry
     Harris-Foulkes estimate   =    -470.60539402 Ry
     estimated scf accuracy    <       1.22097505 Ry

     iteration # 16     ecut=    50.00 Ry     beta=0.60
     Davidson diagonalization with overlap
     ethr =  7.46E-04,  avg # of iterations =  1.7

     total cpu time spent up to now is     1023.8 secs

     total energy              =    -470.25302488 Ry
     Harris-Foulkes estimate   =    -470.46271833 Ry
     estimated scf accuracy    <       0.70193288 Ry

     iteration # 17     ecut=    50.00 Ry     beta=0.60
     Davidson diagonalization with overlap
     ethr =  7.46E-04,  avg # of iterations =  4.3

     total cpu time spent up to now is     1045.7 secs

     total energy              =    -470.44676594 Ry
     Harris-Foulkes estimate   =    -470.51391093 Ry
     estimated scf accuracy    <       1.64111679 Ry

     iteration # 18     ecut=    50.00 Ry     beta=0.60
     Davidson diagonalization with overlap
     ethr =  7.46E-04,  avg # of iterations =  1.0

     total cpu time spent up to now is     1058.7 secs

     total energy              =    -470.54477092 Ry
     Harris-Foulkes estimate   =    -470.45725057 Ry
     estimated scf accuracy    <       0.76752107 Ry

     iteration # 19     ecut=    50.00 Ry     beta=0.60
     Davidson diagonalization with overlap
     ethr =  7.46E-04,  avg # of iterations =  1.0

     total cpu time spent up to now is     1071.8 secs

     total energy              =    -470.43442142 Ry
     Harris-Foulkes estimate   =    -470.57976098 Ry
     estimated scf accuracy    <       2.53675456 Ry

     iteration # 20     ecut=    50.00 Ry     beta=0.60
     Davidson diagonalization with overlap
     ethr =  7.46E-04,  avg # of iterations =  1.0

     total cpu time spent up to now is     1084.9 secs

     total energy              =    -470.46796278 Ry
     Harris-Foulkes estimate   =    -470.46370348 Ry
     estimated scf accuracy    <       0.88039749 Ry

     iteration # 21     ecut=    50.00 Ry     beta=0.60
     Davidson diagonalization with overlap
     ethr =  7.46E-04,  avg # of iterations =  1.0

     total cpu time spent up to now is     1097.9 secs

     total energy              =    -470.49001298 Ry
     Harris-Foulkes estimate   =    -470.46897910 Ry
     estimated scf accuracy    <       0.90987781 Ry

     iteration # 22     ecut=    50.00 Ry     beta=0.60
     Davidson diagonalization with overlap
     ethr =  7.46E-04,  avg # of iterations =  1.0

     total cpu time spent up to now is     1111.0 secs

     total energy              =    -470.50869605 Ry
     Harris-Foulkes estimate   =    -470.49188888 Ry
     estimated scf accuracy    <       1.22392236 Ry

     iteration # 23     ecut=    50.00 Ry     beta=0.60
     Davidson diagonalization with overlap
     ethr =  7.46E-04,  avg # of iterations =  1.0

     total cpu time spent up to now is     1124.1 secs

     total energy              =    -470.38008163 Ry
     Harris-Foulkes estimate   =    -470.50962686 Ry
     estimated scf accuracy    <       1.49559315 Ry

     iteration # 24     ecut=    50.00 Ry     beta=0.60
     Davidson diagonalization with overlap
     ethr =  7.46E-04,  avg # of iterations =  1.3

     total cpu time spent up to now is     1137.4 secs

     total energy              =    -470.40282451 Ry
     Harris-Foulkes estimate   =    -470.42412384 Ry
     estimated scf accuracy    <       0.15702601 Ry

     iteration # 25     ecut=    50.00 Ry     beta=0.60
     Davidson diagonalization with overlap
     ethr =  3.08E-04,  avg # of iterations =  4.6

     total cpu time spent up to now is     1154.8 secs

     total energy              =    -470.41953349 Ry
     Harris-Foulkes estimate   =    -470.42728521 Ry
     estimated scf accuracy    <       0.02709322 Ry

     iteration # 26     ecut=    50.00 Ry     beta=0.60
     Davidson diagonalization with overlap
     ethr =  5.31E-05,  avg # of iterations =  4.2

     total cpu time spent up to now is     1172.8 secs

     total energy              =    -470.42440323 Ry
     Harris-Foulkes estimate   =    -470.42430275 Ry
     estimated scf accuracy    <       0.00335023 Ry

     iteration # 27     ecut=    50.00 Ry     beta=0.60
     Davidson diagonalization with overlap
     c_bands:  1 eigenvalues not converged
     ethr =  6.57E-06,  avg # of iterations =  4.9

     total cpu time spent up to now is     1189.3 secs

     total energy              =    -470.42468035 Ry
     Harris-Foulkes estimate   =    -470.42468046 Ry
     estimated scf accuracy    <       0.00843719 Ry

     iteration # 28     ecut=    50.00 Ry     beta=0.60
     Davidson diagonalization with overlap
     ethr =  6.57E-06,  avg # of iterations =  1.0

     total cpu time spent up to now is     1202.4 secs

     total energy              =    -470.42492530 Ry
     Harris-Foulkes estimate   =    -470.42476284 Ry
     estimated scf accuracy    <       0.01094589 Ry

     iteration # 29     ecut=    50.00 Ry     beta=0.60
     Davidson diagonalization with overlap
     ethr =  6.57E-06,  avg # of iterations =  3.2

     total cpu time spent up to now is     1218.4 secs

     total energy              =    -470.42297836 Ry
     Harris-Foulkes estimate   =    -470.42545824 Ry
     estimated scf accuracy    <       0.01067979 Ry

     iteration # 30     ecut=    50.00 Ry     beta=0.60
     Davidson diagonalization with overlap
     ethr =  6.57E-06,  avg # of iterations =  4.1

     total cpu time spent up to now is     1237.6 secs

     total energy              =    -470.42401457 Ry
     Harris-Foulkes estimate   =    -470.42424553 Ry
     estimated scf accuracy    <       0.00410905 Ry

     iteration # 31     ecut=    50.00 Ry     beta=0.60
     Davidson diagonalization with overlap
     ethr =  6.57E-06,  avg # of iterations =  1.0

     total cpu time spent up to now is     1250.7 secs

     total energy              =    -470.42360961 Ry
     Harris-Foulkes estimate   =    -470.42405320 Ry
     estimated scf accuracy    <       0.00240569 Ry

     iteration # 32     ecut=    50.00 Ry     beta=0.60
     Davidson diagonalization with overlap
     ethr =  4.72E-06,  avg # of iterations =  3.1

     total cpu time spent up to now is     1266.0 secs

     total energy              =    -470.42385827 Ry
     Harris-Foulkes estimate   =    -470.42389229 Ry
     estimated scf accuracy    <       0.00036689 Ry

     iteration # 33     ecut=    50.00 Ry     beta=0.60
     Davidson diagonalization with overlap
     ethr =  7.19E-07,  avg # of iterations =  4.4

     total cpu time spent up to now is     1282.3 secs

     total energy              =    -470.42380383 Ry
     Harris-Foulkes estimate   =    -470.42390188 Ry
     estimated scf accuracy    <       0.00056088 Ry

     iteration # 34     ecut=    50.00 Ry     beta=0.60
     Davidson diagonalization with overlap
     ethr =  7.19E-07,  avg # of iterations =  2.2

     total cpu time spent up to now is     1296.2 secs

     total energy              =    -470.42384695 Ry
     Harris-Foulkes estimate   =    -470.42384742 Ry
     estimated scf accuracy    <       0.00000939 Ry

     iteration # 35     ecut=    50.00 Ry     beta=0.60
     Davidson diagonalization with overlap
     ethr =  1.84E-08,  avg # of iterations =  4.9

     total cpu time spent up to now is     1316.7 secs

     total energy              =    -470.42385505 Ry
     Harris-Foulkes estimate   =    -470.42385506 Ry
     estimated scf accuracy    <       0.00000565 Ry

     iteration # 36     ecut=    50.00 Ry     beta=0.60
     Davidson diagonalization with overlap
     ethr =  1.11E-08,  avg # of iterations =  1.0

     total cpu time spent up to now is     1329.8 secs

     total energy              =    -470.42385564 Ry
     Harris-Foulkes estimate   =    -470.42385507 Ry
     estimated scf accuracy    <       0.00000622 Ry

     iteration # 37     ecut=    50.00 Ry     beta=0.60
     Davidson diagonalization with overlap
     ethr =  1.11E-08,  avg # of iterations =  2.4

     total cpu time spent up to now is     1344.2 secs

     total energy              =    -470.42385818 Ry
     Harris-Foulkes estimate   =    -470.42385626 Ry
     estimated scf accuracy    <       0.00002143 Ry

     iteration # 38     ecut=    50.00 Ry     beta=0.60
     Davidson diagonalization with overlap
     ethr =  1.11E-08,  avg # of iterations =  2.6

     total cpu time spent up to now is     1358.3 secs

     total energy              =    -470.42385233 Ry
     Harris-Foulkes estimate   =    -470.42385871 Ry
     estimated scf accuracy    <       0.00004843 Ry

     iteration # 39     ecut=    50.00 Ry     beta=0.60
     Davidson diagonalization with overlap
     ethr =  1.11E-08,  avg # of iterations =  3.7

     total cpu time spent up to now is     1375.2 secs

     total energy              =    -470.42385387 Ry
     Harris-Foulkes estimate   =    -470.42385459 Ry
     estimated scf accuracy    <       0.00000245 Ry

     iteration # 40     ecut=    50.00 Ry     beta=0.60
     Davidson diagonalization with overlap
     ethr =  4.81E-09,  avg # of iterations =  4.3

     total cpu time spent up to now is     1392.9 secs

     total energy              =    -470.42385430 Ry
     Harris-Foulkes estimate   =    -470.42385459 Ry
     estimated scf accuracy    <       0.00000224 Ry

     iteration # 41     ecut=    50.00 Ry     beta=0.60
     Davidson diagonalization with overlap
     ethr =  4.40E-09,  avg # of iterations =  1.0

     total cpu time spent up to now is     1406.0 secs

     total energy              =    -470.42385433 Ry
     Harris-Foulkes estimate   =    -470.42385439 Ry
     estimated scf accuracy    <       0.00000031 Ry

     iteration # 42     ecut=    50.00 Ry     beta=0.60
     Davidson diagonalization with overlap
     ethr =  6.09E-10,  avg # of iterations =  4.0

     total cpu time spent up to now is     1423.5 secs

     total energy              =    -470.42385440 Ry
     Harris-Foulkes estimate   =    -470.42385441 Ry
     estimated scf accuracy    <       0.00000012 Ry

     iteration # 43     ecut=    50.00 Ry     beta=0.60
     Davidson diagonalization with overlap
     ethr =  2.40E-10,  avg # of iterations =  1.0

     total cpu time spent up to now is     1436.6 secs

     total energy              =    -470.42385440 Ry
     Harris-Foulkes estimate   =    -470.42385440 Ry
     estimated scf accuracy    <       0.00000004 Ry

     iteration # 44     ecut=    50.00 Ry     beta=0.60
     Davidson diagonalization with overlap
     ethr =  7.34E-11,  avg # of iterations =  3.1

     total cpu time spent up to now is     1452.6 secs

     total energy              =    -470.42385440 Ry
     Harris-Foulkes estimate   =    -470.42385440 Ry
     estimated scf accuracy    <          3.1E-09 Ry

     iteration # 45     ecut=    50.00 Ry     beta=0.60
     Davidson diagonalization with overlap
     ethr =  6.07E-12,  avg # of iterations =  2.6

     total cpu time spent up to now is     1466.9 secs

     total energy              =    -470.42385440 Ry
     Harris-Foulkes estimate   =    -470.42385440 Ry
     estimated scf accuracy    <          1.6E-09 Ry

     iteration # 46     ecut=    50.00 Ry     beta=0.60
     Davidson diagonalization with overlap
     ethr =  3.11E-12,  avg # of iterations =  2.5

     total cpu time spent up to now is     1481.2 secs

     End of self-consistent calculation

          k = 0.0000 0.0000 0.0000 (  3479 PWs)   bands (ev):

   -41.3773 -39.3175 -39.2234 -39.0597 -17.6511 -17.6511 -17.6511 -15.4695
   -15.4695 -15.4695 -15.3923 -15.3923 -15.3923 -14.9470 -14.9470 -14.9470
     9.4043  12.2317  12.2317  13.8994  13.8994  13.8994  14.4699  14.4699
    14.4699  15.7314  15.7314  15.7314  17.8596  17.8596  18.5670

          k = 0.0113 0.0113-0.0113 (  3509 PWs)   bands (ev):

   -41.3772 -39.3152 -39.2240 -39.0615 -17.6515 -17.6515 -17.6512 -15.4940
   -15.4815 -15.4815 -15.3806 -15.3806 -15.3580 -14.9572 -14.9462 -14.9462
     9.4842  12.2811  12.2811  13.7753  13.8899  13.8899  14.4883  14.4883
    14.4927  15.6986  15.6986  15.8054  17.8391  17.8391  18.5452

          k = 0.0227 0.0227-0.0227 (  3521 PWs)   bands (ev):

   -41.3769 -39.3088 -39.2257 -39.0668 -17.6524 -17.6524 -17.6514 -15.5213
   -15.5054 -15.5054 -15.3576 -15.3576 -15.3067 -14.9820 -14.9441 -14.9441
     9.7182  12.4258  12.4258  13.5515  13.8766  13.8766  14.4222  14.5239
    14.5239  15.5959  15.5959  16.0356  17.7910  17.7910  18.3774

          k = 0.0340 0.0340-0.0340 (  3521 PWs)   bands (ev):

   -41.3765 -39.2989 -39.2285 -39.0748 -17.6536 -17.6536 -17.6514 -15.5311
   -15.5297 -15.5297 -15.3346 -15.3346 -15.2746 -15.0056 -14.9410 -14.9410
    10.0900  12.6549  12.6549  13.3829  13.8872  13.8872  14.1560  14.5378
    14.5378  15.4185  15.4185  16.4291  17.3412  17.7487  17.7487

          k = 0.0454 0.0454-0.0454 (  3506 PWs)   bands (ev):

   -41.3761 -39.2867 -39.2323 -39.0839 -17.6549 -17.6549 -17.6510 -15.5502
   -15.5502 -15.5262 -15.3157 -15.3157 -15.2736 -15.0131 -14.9375 -14.9375
    10.5749  12.9484  12.9484  13.3115  13.7533  13.9402  13.9402  14.4941
    14.4941  15.1789  15.1789  16.3175  16.9839  17.7421  17.7421

          k = 0.0567 0.0567-0.0567 (  3489 PWs)   bands (ev):

   -41.3757 -39.2744 -39.2371 -39.0922 -17.6560 -17.6560 -17.6503 -15.5649
   -15.5649 -15.5161 -15.3025 -15.3025 -15.2896 -15.0088 -14.9345 -14.9345
    11.1429  13.0091  13.2710  13.2710  13.6470  14.0368  14.0368  14.3748
    14.3748  14.9185  14.9185  15.4042  17.6740  17.7753  17.7753

          k = 0.0681 0.0681-0.0681 (  3501 PWs)   bands (ev):

   -41.3756 -39.2650 -39.2418 -39.0972 -17.6566 -17.6566 -17.6497 -15.5725
   -15.5725 -15.5097 -15.3017 -15.2957 -15.2957 -15.0043 -14.9327 -14.9327
    11.7570  12.4176  13.5422  13.5422  13.9498  14.1403  14.1403  14.2181
    14.2181  14.6781  14.7178  14.7178  17.8189  17.8189  18.1654

          k = 0.0227 0.0000 0.0000 (  3523 PWs)   bands (ev):

   -41.3772 -39.3145 -39.2242 -39.0622 -17.6520 -17.6520 -17.6504 -15.5007
   -15.5007 -15.4679 -15.3816 -15.3609 -15.3609 -14.9612 -14.9458 -14.9458
     9.5108  12.2903  12.3035  13.7638  13.8671  13.8671  14.3061  14.6013
    14.6013  15.7196  15.7196  15.7694  17.7682  17.8873  18.5174

          k = 0.0340 0.0113-0.0113 (  3522 PWs)   bands (ev):

   -41.3770 -39.3095 -39.2255 -39.0664 -17.6531 -17.6530 -17.6500 -15.5265
   -15.5250 -15.4760 -15.3704 -15.3369 -15.3191 -14.9825 -14.9439 -14.9438
     9.6932  12.3962  12.4188  13.5658  13.8384  13.8492  14.1920  14.6753
    14.7190  15.6282  15.6707  15.9362  17.6598  17.8951  18.4653

          k = 0.0454 0.0227-0.0227 (  3519 PWs)   bands (ev):

   -41.3766 -39.3007 -39.2278 -39.0735 -17.6545 -17.6539 -17.6500 -15.5476
   -15.5419 -15.4963 -15.3506 -15.3154 -15.2807 -15.0078 -14.9409 -14.9407
[...]
    12.9599  13.6467  14.0005  14.7471  14.7578  15.4092  15.4437  17.1465
    17.2912  17.9019  17.9030  17.9139  18.5657  18.6448  18.9292

          k = 0.1169 0.0234-0.0234 (  2869 PWs)   bands (ev):

   -39.4579 -37.3818 -37.3407 -37.2310 -15.8004 -15.7976 -15.7636 -13.9130
   -13.9076 -13.6405 -13.4736 -13.3631 -13.3526 -13.1976 -12.9918 -12.9814
    13.3761  13.5905  13.8712  14.8210  15.0482  15.4864  15.6250  16.6677
    17.1009  17.6932  17.7227  18.0201  18.1412  18.7459  19.2204

          k =-0.0234-0.1169 0.1169 (  2873 PWs)   bands (ev):

   -39.4577 -37.3678 -37.3464 -37.2398 -15.7995 -15.7937 -15.7679 -13.9174
   -13.9000 -13.6375 -13.5273 -13.3743 -13.3377 -13.1388 -13.0082 -12.9797
    13.5127  13.7909  13.9086  14.7794  15.3066  15.6026  15.9233  16.2424
    16.9315  17.2414  17.2901  17.6294  18.4493  18.7064  19.2895

          k =-0.0117-0.1052 0.1052 (  2872 PWs)   bands (ev):

   -39.4576 -37.3620 -37.3520 -37.2402 -15.7967 -15.7883 -15.7737 -13.9103
   -13.8836 -13.6685 -13.5368 -13.3939 -13.3299 -13.0856 -13.0344 -12.9813
    13.4310  13.9811  14.2049  14.6334  15.4633  15.6521  16.0254  16.3380
    16.7566  16.7861  16.9483  17.2751  18.7858  18.8450  18.8748

          k = 0.0000-0.0935 0.0935 (  2886 PWs)   bands (ev):

   -39.4579 -37.3738 -37.3482 -37.2316 -15.7926 -15.7831 -15.7794 -13.8870
   -13.8605 -13.7174 -13.5213 -13.4193 -13.3311 -13.0656 -13.0425 -12.9858
    13.2786  14.1459  14.4849  14.4996  15.4300  15.5676  16.1412  16.2404
    16.5208  16.8390  16.9235  16.9812  18.5812  19.1214  19.1413

          k = 0.1169 0.0000 0.0000 (  2862 PWs)   bands (ev):

   -39.4580 -37.3857 -37.3380 -37.2297 -15.8029 -15.8029 -15.7590 -13.9182
   -13.9182 -13.6418 -13.3506 -13.3506 -13.3479 -13.3313 -12.9791 -12.9791
    13.2863  13.4713  13.7711  14.7735  15.0101  15.4187  15.4187  17.2114
    17.4832  17.4832  18.2761  18.2761  18.5771  18.6728  18.6728

          k = 0.1286 0.0117-0.0117 (  2870 PWs)   bands (ev):

   -39.4577 -37.3728 -37.3401 -37.2411 -15.8047 -15.8038 -15.7594 -13.9258
   -13.9223 -13.6293 -13.4292 -13.3487 -13.3305 -13.2733 -12.9782 -12.9744
    13.3655  13.6419  13.6749  14.7420  15.3047  15.4646  15.4978  16.6963
    17.4356  17.7250  18.0645  18.2338  18.5067  18.5234  19.0073

          k =-0.0117-0.1286 0.1286 (  2873 PWs)   bands (ev):

   -39.4575 -37.3624 -37.3434 -37.2486 -15.8040 -15.8007 -15.7625 -13.9325
   -13.9172 -13.6038 -13.5150 -13.3563 -13.3213 -13.2024 -12.9899 -12.9732
    13.3749  13.6319  14.0075  14.6341  15.4664  15.6463  15.6918  16.2163
    17.2791  17.5601  17.8837  18.1152  18.2294  18.3499  19.5160

          k = 0.0000-0.1169 0.1169 (  2874 PWs)   bands (ev):

   -39.4575 -37.3565 -37.3497 -37.2483 -15.8012 -15.7948 -15.7677 -13.9303
   -13.9038 -13.5969 -13.5683 -13.3721 -13.3209 -13.1363 -13.0121 -12.9758
    13.4112  13.7613  14.2323  14.5192  15.5164  15.8346  15.8747  15.9921
    17.1106  17.1369  17.3548  17.7789  18.4378  18.4853  19.1867

          k = 0.1403 0.0000 0.0000 (  2886 PWs)   bands (ev):

   -39.4575 -37.3650 -37.3403 -37.2491 -15.8069 -15.8069 -15.7575 -13.9292
   -13.9292 -13.6300 -13.3743 -13.3426 -13.3426 -13.3178 -12.9702 -12.9702
    13.2660  13.5242  13.9461  14.6378  15.4546  15.4546  15.6119  16.4753
    17.6539  17.6539  18.1067  18.1067  18.8063  18.8063  19.0300

          k = 0.0000-0.1403 0.1403 (  2884 PWs)   bands (ev):

   -39.4574 -37.3612 -37.3412 -37.2522 -15.8067 -15.8058 -15.7587 -13.9326
   -13.9274 -13.6191 -13.4452 -13.3452 -13.3148 -13.2776 -12.9744 -12.9698
    13.2748  13.5178  14.1042  14.5563  15.4696  15.5210  15.8027  16.1978
    17.5846  17.8026  17.8492  18.0812  18.5847  18.6815  19.3752

          k = 0.0468 0.0234-0.0000 (  2847 PWs)   bands (ev):

   -39.4611 -37.4555 -37.3260 -37.1661 -15.7816 -15.7798 -15.7716 -13.8019
   -13.7990 -13.7115 -13.5341 -13.4562 -13.4431 -13.0998 -13.0093 -13.0088
    11.4666  13.7955  13.8695  14.8991  15.2300  15.4223  15.6663  16.4885
    16.6047  17.1984  17.3401  17.8477  19.3950  19.8849  20.2898

          k = 0.0584 0.0351-0.0117 (  2860 PWs)   bands (ev):

   -39.4603 -37.4407 -37.3299 -37.1786 -15.7845 -15.7820 -15.7720 -13.8242
   -13.8122 -13.7315 -13.5092 -13.4370 -13.4027 -13.1287 -13.0062 -13.0051
    11.8539  14.0106  14.1305  14.7114  15.0680  15.4348  15.6458  16.4513
    16.6925  17.0024  17.1842  18.2522  19.2732  19.2821  19.8737

          k = 0.0701 0.0468-0.0234 (  2873 PWs)   bands (ev):

   -39.4594 -37.4222 -37.3352 -37.1933 -15.7863 -15.7837 -15.7730 -13.8427
   -13.8117 -13.7533 -13.4782 -13.4406 -13.3913 -13.1271 -13.0038 -13.0019
    12.3447  14.2498  14.4193  14.6817  14.8986  15.4805  15.6816  16.2808
    16.6685  16.7582  16.9200  18.1984  18.8516  19.2747  19.7609

          k = 0.0818 0.0584-0.0351 (  2874 PWs)   bands (ev):

   -39.4587 -37.4030 -37.3420 -37.2071 -15.7875 -15.7844 -15.7741 -13.8550
   -13.8132 -13.7667 -13.4606 -13.4466 -13.3923 -13.1073 -13.0050 -12.9991
    12.8951  14.3023  14.6049  14.7870  14.9664  15.5768  15.7525  16.0944
    16.4814  16.5287  16.6448  17.2543  19.3512  19.5724  19.6386

          k =-0.0584-0.0818 0.1052 (  2874 PWs)   bands (ev):

   -39.4584 -37.3883 -37.3487 -37.2157 -15.7881 -15.7845 -15.7745 -13.8613
   -13.8171 -13.7732 -13.4706 -13.4249 -13.3989 -13.0917 -13.0086 -12.9974
    13.4545  13.9654  14.7202  14.9089  15.2711  15.6871  15.8411  16.0224
    16.2542  16.3412  16.4666  16.5768  19.4979  19.5278  19.6041

          k = 0.0701 0.0234-0.0000 (  2863 PWs)   bands (ev):

   -39.4600 -37.4354 -37.3305 -37.1837 -15.7877 -15.7869 -15.7676 -13.8528
   -13.8453 -13.6939 -13.4766 -13.4207 -13.3950 -13.1605 -13.0034 -13.0033
    11.9863  14.0577  14.1239  14.5989  14.8369  15.3914  15.4259  16.9436
    17.0393  17.1558  17.2735  18.1396  18.8834  19.5301  19.7012

          k = 0.0818 0.0351-0.0117 (  2867 PWs)   bands (ev):

   -39.4592 -37.4186 -37.3347 -37.1978 -15.7901 -15.7888 -15.7684 -13.8728
   -13.8469 -13.7040 -13.4534 -13.4328 -13.3741 -13.1612 -13.0001 -12.9987
    12.4205  14.0905  14.3707  14.5934  14.6769  15.4419  15.5311  16.8300
    16.9905  17.0510  17.1133  18.5963  18.6436  18.8266  19.3661

          k = 0.0935 0.0468-0.0234 (  2875 PWs)   bands (ev):

   -39.4586 -37.3999 -37.3402 -37.2122 -15.7918 -15.7883 -15.7707 -13.8880
   -13.8402 -13.7176 -13.4696 -13.4213 -13.3712 -13.1331 -13.0025 -12.9947
    12.9111  14.0435  14.4236  14.6059  14.9483  15.5293  15.7080  16.5903
    16.7088  16.8566  16.9665  17.6927  18.9167  19.1911  19.3311

          k =-0.0468-0.0935 0.1169 (  2881 PWs)   bands (ev):

   -39.4581 -37.3834 -37.3469 -37.2229 -15.7922 -15.7860 -15.7738 -13.8969
   -13.8296 -13.7361 -13.4911 -13.4011 -13.3755 -13.1011 -13.0124 -12.9921
    13.4029  13.8838  14.3965  14.7510  15.2585  15.6427  15.9565  16.3265
    16.4468  16.6512  16.7289  17.0173  19.0986  19.1590  19.3772

          k =-0.0351-0.0818 0.1052 (  2871 PWs)   bands (ev):

   -39.4580 -37.3775 -37.3503 -37.2256 -15.7914 -15.7838 -15.7766 -13.8962
   -13.8134 -13.7582 -13.4973 -13.4062 -13.3684 -13.0837 -13.0207 -12.9915
    13.5727  13.8417  14.4513  14.7578  15.4233  15.7064  16.0608  16.1921
    16.3686  16.5100  16.6411  16.7422  19.0971  19.2641  19.3290

          k =-0.0234-0.0701 0.0935 (  2867 PWs)   bands (ev):

   -39.4583 -37.3886 -37.3451 -37.2192 -15.7896 -15.7846 -15.7764 -13.8844
   -13.7963 -13.7756 -13.4913 -13.4298 -13.3581 -13.0954 -13.0139 -12.9932
    13.1652  14.1446  14.4816  14.6745  15.2432  15.6817  15.8303  16.2785
    16.3720  16.7058  16.7164  17.1237  18.9415  19.3649  19.4829

          k =-0.0117-0.0584 0.0818 (  2870 PWs)   bands (ev):

   -39.4588 -37.4066 -37.3389 -37.2064 -15.7875 -15.7861 -15.7743 -13.8645
   -13.8052 -13.7638 -13.4710 -13.4592 -13.3567 -13.1207 -13.0050 -12.9967
    12.7039  14.2230  14.4857  14.6826  14.8909  15.6017  15.6723  16.3912
    16.5930  16.7801  16.8842  17.9408  18.9511  19.1767  19.2674

          k =-0.0000-0.0468 0.0701 (  2864 PWs)   bands (ev):

   -39.4595 -37.4250 -37.3338 -37.1917 -15.7867 -15.7843 -15.7725 -13.8419
   -13.8183 -13.7442 -13.4883 -13.4442 -13.3709 -13.1376 -13.0031 -13.0011
    12.2473  14.1514  14.3791  14.6354  14.8543  15.5075  15.6211  16.4824
    16.7802  16.8140  17.0757  18.6228  18.8222  19.1932  19.2218

          k = 0.0935 0.0234 0.0000 (  2872 PWs)   bands (ev):

   -39.4589 -37.4102 -37.3353 -37.2063 -15.7946 -15.7945 -15.7640 -13.8971
   -13.8789 -13.6684 -13.4179 -13.4111 -13.3626 -13.2117 -12.9942 -12.9931
    12.6371  13.8500  14.2706  14.5045  14.7119  15.4269  15.4326  17.1076
    17.1597  17.5135  17.5655  18.3111  18.5025  18.8391  19.0618

          k = 0.1052 0.0351-0.0117 (  2872 PWs)   bands (ev):

   -39.4583 -37.3932 -37.3393 -37.2204 -15.7967 -15.7945 -15.7657 -13.9161
   -13.8724 -13.6666 -13.4688 -13.3871 -13.3538 -13.1802 -12.9953 -12.9884
    13.0680  13.7662  14.0881  14.6786  14.9621  15.5007  15.5935  16.8131
    16.9396  17.4099  17.5113  18.0824  18.4106  18.8354  19.0747

          k =-0.0351-0.1052 0.1286 (  2875 PWs)   bands (ev):

   -39.4579 -37.3769 -37.3447 -37.2321 -15.7972 -15.7915 -15.7694 -13.9294
   -13.8594 -13.6734 -13.5115 -13.3723 -13.3534 -13.1337 -13.0074 -12.9854
    13.4837  13.7148  14.0315  14.7217  15.2758  15.6058  15.8615  16.4381
    16.7741  17.1123  17.2236  17.4587  18.6389  18.7990  19.4075

          k =-0.0234-0.0935 0.1169 (  2873 PWs)   bands (ev):

   -39.4577 -37.3664 -37.3506 -37.2370 -15.7959 -15.7868 -15.7746 -13.9319
   -13.8400 -13.6993 -13.5258 -13.3826 -13.3433 -13.0894 -13.0292 -12.9850
    13.5580  13.8712  14.1331  14.6439  15.5118  15.7063  16.1666  16.2348
    16.6465  16.7261  16.8785  17.1239  18.9076  18.9257  19.0146

          k =-0.0117-0.0818 0.1052 (  2878 PWs)   bands (ev):

   -39.4579 -37.3729 -37.3485 -37.2323 -15.7933 -15.7823 -15.7796 -13.9194
   -13.8144 -13.7369 -13.5202 -13.4055 -13.3361 -13.0735 -13.0368 -12.9871
    13.3550  14.0992  14.3118  14.5238  15.5126  15.6875  16.1753  16.1992
    16.5110  16.8124  16.8655  16.9402  18.6723  19.1703  19.2081

          k = 0.0000-0.0701 0.0935 (  2874 PWs)   bands (ev):

   -39.4582 -37.3891 -37.3433 -37.2206 -15.7901 -15.7849 -15.7772 -13.8942
   -13.7866 -13.7751 -13.5015 -13.4330 -13.3390 -13.0987 -13.0162 -12.9913
    13.0610  14.1817  14.4810  14.5018  15.2356  15.6776  15.8255  16.3647
    16.4822  16.8372  16.8436  17.4919  18.5571  19.3406  19.4824

          k = 0.1169 0.0234-0.0000 (  2871 PWs)   bands (ev):

   -39.4580 -37.3836 -37.3393 -37.2306 -15.8013 -15.8004 -15.7614 -13.9282
   -13.9003 -13.6392 -13.4461 -13.3564 -13.3437 -13.2390 -12.9847 -12.9813
    13.3269  13.5402  13.8175  14.7661  15.0619  15.4880  15.4898  16.8808
    17.1966  17.9356  17.9399  18.0405  18.3148  18.6049  18.9288

          k =-0.0234-0.1169 0.1403 (  2878 PWs)   bands (ev):

   -39.4576 -37.3697 -37.3426 -37.2418 -15.8018 -15.7984 -15.7642 -13.9460
   -13.8871 -13.6236 -13.5148 -13.3497 -13.3339 -13.1889 -12.9932 -12.9788
    13.4766  13.7193  13.7576  14.6972  15.3851  15.5740  15.6805  16.4742
    17.0404  17.5629  17.7675  17.9402  18.2301  18.5060  19.5082

          k =-0.0117-0.1052 0.1286 (  2872 PWs)   bands (ev):

   -39.4575 -37.3593 -37.3482 -37.2469 -15.8003 -15.7933 -15.7691 -13.9540
   -13.8682 -13.6287 -13.5557 -13.3608 -13.3259 -13.1311 -13.0145 -12.9790
    13.4827  13.7980  14.0514  14.5458  15.5789  15.7512  15.9905  16.1202
    16.9222  17.1100  17.2646  17.6133  18.5370  18.6017  19.2343

          k = 0.0000-0.0935 0.1169 (  2874 PWs)   bands (ev):

   -39.4576 -37.3589 -37.3523 -37.2431 -15.7973 -15.7871 -15.7751 -13.9453
   -13.8431 -13.6801 -13.5440 -13.3808 -13.3259 -13.0787 -13.0427 -12.9820
    13.4496  13.9737  14.2573  14.4117  15.6518  15.7503  16.0463  16.3883
    16.6937  16.7880  16.8886  17.2420  18.8390  18.8473  18.8780

          k =-0.0117-0.1286 0.1519 (  2873 PWs)   bands (ev):

   -39.4575 -37.3637 -37.3415 -37.2493 -15.8052 -15.8039 -15.7601 -13.9443
   -13.9104 -13.6152 -13.4771 -13.3410 -13.3196 -13.2491 -12.9789 -12.9733
    13.3330  13.5724  13.9694  14.6232  15.5119  15.5313  15.6390  16.3509
    17.3633  17.7673  17.9134  18.1934  18.3747  18.4612  19.3811

          k = 0.0000-0.1169 0.1403 (  2876 PWs)   bands (ev):

   -39.4574 -37.3588 -37.3440 -37.2518 -15.8037 -15.7999 -15.7637 -13.9568
   -13.8918 -13.5911 -13.5492 -13.3454 -13.3179 -13.1912 -12.9930 -12.9749
    13.3924  13.6196  14.1347  14.5019  15.5639  15.7167  15.8537  16.0723
    17.1814  17.3684  17.8478  18.0492  18.2990  18.3316  19.5477

          k = 0.0935 0.0468-0.0000 (  2871 PWs)   bands (ev):

   -39.4586 -37.4018 -37.3386 -37.2118 -15.7917 -15.7904 -15.7698 -13.8998
   -13.8353 -13.7096 -13.4732 -13.4264 -13.3497 -13.1477 -13.0010 -12.9939
    12.8237  14.0119  14.3779  14.5070  14.9429  15.5797  15.5902  16.6857
    16.9095  16.9509  17.1414  18.1639  18.7631  18.8377  19.0740

          k =-0.0468-0.0935 0.1403 (  2869 PWs)   bands (ev):

   -39.4581 -37.3843 -37.3435 -37.2254 -15.7937 -15.7881 -15.7730 -13.9243
   -13.8121 -13.7263 -13.5061 -13.4001 -13.3442 -13.1165 -13.0114 -12.9902
    13.2252  13.9638  14.2461  14.5437  15.3098  15.6873  15.8051  16.4741
    16.7239  16.8090  17.0434  17.4505  18.6787  18.9843  19.4922

          k =-0.0351-0.0818 0.1286 (  2878 PWs)   bands (ev):

   -39.4578 -37.3704 -37.3493 -37.2342 -15.7947 -15.7840 -15.7773 -13.9393
   -13.7851 -13.7522 -13.5206 -13.3790 -13.3494 -13.0851 -13.0299 -12.9881
    13.5603  13.8387  14.2529  14.5046  15.6295  15.7945  16.0857  16.2712
    16.5727  16.7224  16.7865  16.9645  18.8454  19.1512  19.1905

          k =-0.0351-0.1052 0.1519 (  2874 PWs)   bands (ev):

   -39.4579 -37.3777 -37.3426 -37.2334 -15.7980 -15.7936 -15.7681 -13.9465
   -13.8488 -13.6661 -13.5164 -13.3658 -13.3382 -13.1537 -13.0023 -12.9856
    13.4115  13.7324  13.9471  14.6198  15.3413  15.6747  15.6870  16.6735
    16.7264  17.2715  17.4723  17.6424  18.5580  18.5787  19.5384

          k =-0.0234-0.0935 0.1403 (  2876 PWs)   bands (ev):

   -39.4576 -37.3642 -37.3470 -37.2430 -15.7984 -15.7894 -15.7728 -13.9671
   -13.8185 -13.6864 -13.5428 -13.3498 -13.3362 -13.1135 -13.0224 -12.9845
    13.6224  13.7948  13.9414  14.4751  15.7219  15.7895  15.9823  16.4114
    16.6571  16.9679  17.0747  17.2842  18.6690  18.8256  19.3100

          k =-0.0117-0.0818 0.1286 (  2880 PWs)   bands (ev):

   -39.4575 -37.3582 -37.3512 -37.2449 -15.7976 -15.7835 -15.7786 -13.9708
   -13.7849 -13.7263 -13.5439 -13.3556 -13.3319 -13.0729 -13.0509 -12.9849
    13.6028  13.9113  14.0799  14.3284  15.8696  15.9197  16.2216  16.3688
    16.5703  16.6930  16.7645  17.0790  18.9071  18.9642  19.0778

          k = 0.0000-0.0701 0.1169 (  2870 PWs)   bands (ev):

   -39.4577 -37.3689 -37.3473 -37.2377 -15.7959 -15.7845 -15.7775 -13.9550
   -13.7711 -13.7514 -13.5318 -13.3757 -13.3321 -13.0883 -13.0333 -12.9869
    13.4629  13.9829  14.1236  14.3968  15.6779  15.8369  16.0656  16.3418
    16.6711  16.7516  16.9968  17.0299  18.6363  19.1745  19.2836

          k =-0.0117-0.1052 0.1519 (  2874 PWs)   bands (ev):

   -39.4574 -37.3599 -37.3449 -37.2497 -15.8015 -15.7956 -15.7675 -13.9726
   -13.8559 -13.6194 -13.5632 -13.3368 -13.3245 -13.1571 -13.0053 -12.9801
    13.5173  13.7078  13.9760  14.4846  15.7448  15.7483  15.8049  16.3049
    16.8521  17.1805  17.5399  17.6577  18.5059  18.5241  19.5829

          k =-0.0000-0.0935 0.1403 (  2869 PWs)   bands (ev):

   -39.4574 -37.3546 -37.3489 -37.2511 -15.8001 -15.7899 -15.7728 -13.9826
   -13.8208 -13.6650 -13.5628 -13.3398 -13.3232 -13.1120 -13.0287 -12.9822
    13.5842  13.8066  14.0714  14.3058  15.8299  16.0570  16.0987  16.1581
    16.7170  16.8401  17.0564  17.3590  18.7436  18.7636  19.2451

          k =-0.0117-0.0818 0.1519 (  2878 PWs)   bands (ev):

   -39.4574 -37.3546 -37.3496 -37.2503 -15.7991 -15.7843 -15.7782 -13.9892
   -13.7712 -13.7238 -13.5551 -13.3335 -13.3288 -13.0833 -13.0496 -12.9846
    13.7012  13.8975  13.9248  14.2401  16.0012  16.0927  16.2589  16.3974
    16.5280  16.6936  16.7162  17.1134  18.8712  19.0538  19.1984

     the Fermi energy is    16.8512 ev

!    total energy              =    -470.44237137 Ry
     Harris-Foulkes estimate   =    -470.44237137 Ry
     estimated scf accuracy    <          8.7E-13 Ry

     The total energy is the sum of the following terms:

     one-electron contribution =     -88.94264955 Ry
     hartree contribution      =      69.14366725 Ry
     xc contribution           =     -69.86439275 Ry
     ewald contribution        =    -380.77781650 Ry
     smearing contrib. (-TS)   =      -0.00117982 Ry

     convergence has been achieved in  33 iterations

     Forces acting on atoms (Ry/au):

     atom    1 type  2   force =     0.00000000    0.00000000    0.00000000
     atom    2 type  1   force =    -0.00000000   -0.00000000    0.00000000
     atom    3 type  1   force =     0.00000000    0.00000000    0.00000000
     atom    4 type  1   force =     0.00000000    0.00000000   -0.00000000

     Total force =     0.000000     Total SCF correction =     0.000000


     entering subroutine stress ...

          total   stress  (Ry/bohr**3)                   (kbar)     P=   -1.34
  -0.00000913  -0.00000000  -0.00000000         -1.34     -0.00     -0.00
  -0.00000000  -0.00000913  -0.00000000         -0.00     -1.34     -0.00
  -0.00000000  -0.00000000  -0.00000913         -0.00     -0.00     -1.34


     init_run     :     19.96s CPU     20.81s WALL (       2 calls)
     electrons    :   4100.42s CPU   4202.35s WALL (       9 calls)
     update_pot   :     19.85s CPU     19.94s WALL (       7 calls)
     forces       :     29.74s CPU     30.48s WALL (       9 calls)
     stress       :     57.84s CPU     60.07s WALL (       9 calls)

     Called by init_run:
     wfcinit      :     16.50s CPU     17.20s WALL (       2 calls)
     potinit      :      1.10s CPU      1.12s WALL (       2 calls)

     Called by electrons:
     c_bands      :   3313.84s CPU   3372.24s WALL (     257 calls)
     sum_band     :    686.70s CPU    713.85s WALL (     257 calls)
     v_of_rho     :     30.31s CPU     31.11s WALL (     263 calls)
     newd         :     64.64s CPU     80.37s WALL (     263 calls)
     mix_rho      :      4.74s CPU      4.88s WALL (     257 calls)

     Called by c_bands:
     init_us_2    :     44.27s CPU     45.02s WALL (   44856 calls)
     cegterg      :   3213.42s CPU   3269.99s WALL (   21588 calls)

     Called by sum_band:
     sum_band:bec :      1.74s CPU      1.74s WALL (   21588 calls)
     addusdens    :     84.60s CPU    100.53s WALL (     257 calls)

     Called by *egterg:
     h_psi        :   2217.45s CPU   2268.77s WALL (   83313 calls)
     s_psi        :    187.14s CPU    188.16s WALL (   83313 calls)
     g_psi        :      6.24s CPU      6.27s WALL (   61557 calls)
     cdiaghg      :    201.51s CPU    202.50s WALL (   82305 calls)

     Called by h_psi:
     h_psi:pot    :   2195.71s CPU   2246.77s WALL (   83313 calls)
     h_psi:calbec :    242.01s CPU    246.89s WALL (   83313 calls)
     vloc_psi     :   1786.52s CPU   1831.93s WALL (   83313 calls)
     add_vuspsi   :    166.51s CPU    167.46s WALL (   83313 calls)

     General routines
     calbec       :    344.85s CPU    351.63s WALL (  108681 calls)
     fft          :     20.63s CPU     21.84s WALL (    4416 calls)
     ffts         :      0.36s CPU      0.38s WALL (     520 calls)
     fftw         :   1492.94s CPU   1527.92s WALL ( 3945484 calls)
     interpolate  :      3.82s CPU      4.05s WALL (     520 calls)

     Parallel routines
     fft_scatter  :    222.94s CPU    230.15s WALL ( 3950420 calls)

     PWSCF        :     1h10m CPU        1h12m WALL


   This run was terminated on:  12:43:50   1May2018            

=------------------------------------------------------------------------------=
   JOB DONE.
=------------------------------------------------------------------------------=
