
     Program PWSCF v.6.3MaX starts on 28Mar2020 at 16:33: 0 

     This program is part of the open-source Quantum ESPRESSO suite
     for quantum simulation of materials; please cite
         "P. Giannozzi et al., J. Phys.:Condens. Matter 21 395502 (2009);
         "P. Giannozzi et al., J. Phys.:Condens. Matter 29 465901 (2017);
          URL http://www.quantum-espresso.org", 
     in publications or presentations arising from this work. More details at
     http://www.quantum-espresso.org/quote

     Parallel version (MPI), running on     4 processors

     MPI processes distributed on     1 nodes
     R & G space division:  proc/nbgrp/npool/nimage =       4
     Waiting for input...
     Reading input from standard input

     Current dimensions of program PWSCF are:
     Max number of different atomic species (ntypx) = 10
     Max number of k-points (npk) =  40000
     Max angular momentum in pseudopotentials (lmaxx) =  3
     Message from routine iosys:
     minimal I/O required, wf_collect reset to FALSE

     Subspace diagonalization in iterative solution of the eigenvalue problem:
     a serial algorithm will be used

 
     Parallelization info
     --------------------
     sticks:   dense  smooth     PW     G-vecs:    dense   smooth      PW
     Min         861     343    104                36404     9203    1522
     Max         862     344    105                36405     9204    1524
     Sum        3447    1375    417               145617    36815    6091
 


     bravais-lattice index     =            0
     lattice parameter (alat)  =       1.8897  a.u.
     unit-cell volume          =    1077.7903 (a.u.)^3
     number of atoms/cell      =            8
     number of atomic types    =            2
     number of electrons       =       100.00
     number of Kohn-Sham states=           60
     kinetic-energy cutoff     =      40.0000  Ry
     charge density cutoff     =     400.0000  Ry
     convergence threshold     =      1.0E-10
     mixing beta               =       0.6000
     number of iterations used =            8  plain     mixing
     Exchange-correlation      = SLA PW PBE PBE ( 1  4  3  4 0 0)
     nstep                     =           50


     celldm(1)=   1.889726  celldm(2)=   0.000000  celldm(3)=   0.000000
     celldm(4)=   0.000000  celldm(5)=   0.000000  celldm(6)=   0.000000

     crystal axes: (cart. coord. in units of alat)
               a(1) = (  -1.522502   2.637051   4.972461 )  
               a(2) = (  -1.522502   2.637051  -4.972461 )  
               a(3) = (  -4.567506  -2.637051   0.000000 )  

     reciprocal axes: (cart. coord. in units 2 pi/alat)
               b(1) = ( -0.082102  0.142204  0.100554 )  
               b(2) = ( -0.082102  0.142204 -0.100554 )  
               b(3) = ( -0.164203 -0.094803  0.000000 )  


     PseudoPot. # 1 for Nb read from file:
     ./Nb.pbe-nsp-van.UPF
     MD5 check sum: 0a22fc7fb0ba19a08ca5db297a5d2854
     Pseudo is Ultrasoft + core correction, Zval = 13.0
     Generated by new atomic code, or converted to UPF format
     Using radial grid of  887 points,  6 beta functions with: 
                l(1) =   0
                l(2) =   0
                l(3) =   1
                l(4) =   1
                l(5) =   2
                l(6) =   2
     Q(r) pseudized with  6 coefficients,  rinner =    1.000   1.000   1.000
                                                       1.000   1.000

     PseudoPot. # 2 for Ti read from file:
     ./Ti.pbe-sp-van_ak.UPF
     MD5 check sum: f98fea3e8887528921fefa5636a534ca
     Pseudo is Ultrasoft, Zval = 12.0
     Generated by new atomic code, or converted to UPF format
     Using radial grid of  851 points,  6 beta functions with: 
                l(1) =   0
                l(2) =   0
                l(3) =   1
                l(4) =   1
                l(5) =   2
                l(6) =   2
     Q(r) pseudized with  8 coefficients,  rinner =    1.000   1.000   1.000
                                                       1.000   1.000

     atomic species   valence    mass     pseudopotential
        Nb            13.00    92.90638     Nb( 1.00)
        Ti            12.00    47.86700     Ti( 1.00)

      2 Sym. Ops. (no inversion) found ( 1 have fractional translation)



   Cartesian axes

     site n.     atom                  positions (alat units)
         1           Ti  tau(   1) = (  -7.6125106   2.6370512   0.0000000  )
         2           Ti  tau(   2) = (  -3.0450027   3.5160674  -2.4862307  )
         3           Nb  tau(   3) = (  -4.5675063   2.6370512   0.0000000  )
         4           Ti  tau(   4) = (  -4.5675048   0.8790162  -2.4862307  )
         5           Ti  tau(   5) = (  -6.0900085   0.0000000   0.0000000  )
         6           Nb  tau(   6) = (  -3.0450027   3.5160674   2.4862307  )
         7           Nb  tau(   7) = (  -3.0450042   0.0000000   0.0000000  )
         8           Nb  tau(   8) = (  -4.5675048   0.8790162   2.4862307  )

     number of k points=   306  Marzari-Vanderbilt smearing, width (Ry)=  0.0200

     Number of k-points >= 100: set verbosity='high' to print them.

     Dense  grid:   145617 G-vectors     FFT dimensions: (  72,  72,  64)

     Smooth grid:    36815 G-vectors     FFT dimensions: (  45,  45,  45)

     Estimated max dynamical RAM per process >     465.57 MB

     Estimated total dynamical RAM >       1.82 GB

     Initial potential from superposition of free atoms

     starting charge   95.98889, renormalised to  100.00000
     Starting wfcs are   92 randomized atomic wfcs

     total cpu time spent up to now is       29.3 secs

     Self-consistent Calculation

     iteration #  1     ecut=    40.00 Ry     beta= 0.60
     Davidson diagonalization with overlap
     ethr =  1.00E-02,  avg # of iterations =  3.1

     total cpu time spent up to now is       94.7 secs

     total energy              =    -917.19399220 Ry
     Harris-Foulkes estimate   =    -941.94628341 Ry
     estimated scf accuracy    <      31.19481555 Ry

     iteration #  2     ecut=    40.00 Ry     beta= 0.60
     Davidson diagonalization with overlap
     ethr =  1.00E-02,  avg # of iterations =  5.6

     total cpu time spent up to now is      202.2 secs

     total energy              =    -928.23672889 Ry
     Harris-Foulkes estimate   =    -973.30170562 Ry
     estimated scf accuracy    <     136.09211936 Ry

     iteration #  3     ecut=    40.00 Ry     beta= 0.60
     Davidson diagonalization with overlap
     ethr =  1.00E-02,  avg # of iterations =  4.1

     total cpu time spent up to now is      282.6 secs

     total energy              =    -939.21399200 Ry
     Harris-Foulkes estimate   =    -942.38505482 Ry
     estimated scf accuracy    <      24.90898750 Ry

     iteration #  4     ecut=    40.00 Ry     beta= 0.60
     Davidson diagonalization with overlap
     ethr =  1.00E-02,  avg # of iterations =  1.9

     total cpu time spent up to now is      332.7 secs

     total energy              =    -939.34393011 Ry
     Harris-Foulkes estimate   =    -940.08145525 Ry
     estimated scf accuracy    <      13.32746762 Ry

     iteration #  5     ecut=    40.00 Ry     beta= 0.60
     Davidson diagonalization with overlap
     ethr =  1.00E-02,  avg # of iterations =  1.0

     total cpu time spent up to now is      379.8 secs

     total energy              =    -938.81879127 Ry
     Harris-Foulkes estimate   =    -939.45403233 Ry
     estimated scf accuracy    <      10.68872636 Ry

     iteration #  6     ecut=    40.00 Ry     beta= 0.60
     Davidson diagonalization with overlap
     ethr =  1.00E-02,  avg # of iterations =  1.0

     total cpu time spent up to now is      426.8 secs

     total energy              =    -938.04419509 Ry
     Harris-Foulkes estimate   =    -938.89220860 Ry
     estimated scf accuracy    <       8.20096394 Ry

     iteration #  7     ecut=    40.00 Ry     beta= 0.60
     Davidson diagonalization with overlap
     ethr =  8.20E-03,  avg # of iterations =  1.6

     total cpu time spent up to now is      475.5 secs

     total energy              =    -937.04593483 Ry
     Harris-Foulkes estimate   =    -938.23256026 Ry
     estimated scf accuracy    <       4.78867442 Ry

     iteration #  8     ecut=    40.00 Ry     beta= 0.60
     Davidson diagonalization with overlap
     ethr =  4.79E-03,  avg # of iterations =  5.1

     total cpu time spent up to now is      562.5 secs

     total energy              =    -939.49213775 Ry
     Harris-Foulkes estimate   =    -939.32313415 Ry
     estimated scf accuracy    <      25.43549970 Ry

     iteration #  9     ecut=    40.00 Ry     beta= 0.60
     Davidson diagonalization with overlap
     ethr =  4.79E-03,  avg # of iterations =  1.0

     total cpu time spent up to now is      609.6 secs

     total energy              =    -938.11726600 Ry
     Harris-Foulkes estimate   =    -939.57676093 Ry
     estimated scf accuracy    <      29.09645004 Ry

     iteration # 10     ecut=    40.00 Ry     beta= 0.60
     Davidson diagonalization with overlap
     ethr =  4.79E-03,  avg # of iterations =  1.0

     total cpu time spent up to now is      657.9 secs

     total energy              =    -938.43650843 Ry
     Harris-Foulkes estimate   =    -938.48538916 Ry
     estimated scf accuracy    <      10.66734766 Ry

     iteration # 11     ecut=    40.00 Ry     beta= 0.60
     Davidson diagonalization with overlap
     ethr =  4.79E-03,  avg # of iterations =  1.0

     total cpu time spent up to now is      706.2 secs

     total energy              =    -937.81812167 Ry
     Harris-Foulkes estimate   =    -938.47830402 Ry
     estimated scf accuracy    <       9.71856473 Ry

     iteration # 12     ecut=    40.00 Ry     beta= 0.60
     Davidson diagonalization with overlap
     ethr =  4.79E-03,  avg # of iterations =  1.9

     total cpu time spent up to now is      757.2 secs

     total energy              =    -937.94668607 Ry
     Harris-Foulkes estimate   =    -938.10250538 Ry
     estimated scf accuracy    <       1.14343501 Ry

     iteration # 13     ecut=    40.00 Ry     beta= 0.60
     Davidson diagonalization with overlap
     ethr =  1.14E-03,  avg # of iterations =  5.4

     total cpu time spent up to now is      843.9 secs

     total energy              =    -938.44741901 Ry
     Harris-Foulkes estimate   =    -938.29568468 Ry
     estimated scf accuracy    <       1.95616944 Ry

     iteration # 14     ecut=    40.00 Ry     beta= 0.60
     Davidson diagonalization with overlap
     ethr =  1.14E-03,  avg # of iterations =  1.1

     total cpu time spent up to now is      892.1 secs

     total energy              =    -938.12318881 Ry
     Harris-Foulkes estimate   =    -938.48673378 Ry
     estimated scf accuracy    <       4.24593406 Ry

     iteration # 15     ecut=    40.00 Ry     beta= 0.60
     Davidson diagonalization with overlap
     ethr =  1.14E-03,  avg # of iterations =  1.0

     total cpu time spent up to now is      940.2 secs

     total energy              =    -937.94543585 Ry
     Harris-Foulkes estimate   =    -938.21735108 Ry
     estimated scf accuracy    <       1.04330396 Ry

     iteration # 16     ecut=    40.00 Ry     beta= 0.60
     Davidson diagonalization with overlap
     ethr =  1.04E-03,  avg # of iterations =  5.1

     total cpu time spent up to now is     1021.8 secs

     total energy              =    -938.12383619 Ry
     Harris-Foulkes estimate   =    -938.40360605 Ry
     estimated scf accuracy    <       3.11387979 Ry

     iteration # 17     ecut=    40.00 Ry     beta= 0.60
     Davidson diagonalization with overlap
     ethr =  1.04E-03,  avg # of iterations =  1.7

     total cpu time spent up to now is     1071.9 secs

     total energy              =    -938.23148600 Ry
     Harris-Foulkes estimate   =    -938.20684424 Ry
     estimated scf accuracy    <       0.95821222 Ry

     iteration # 18     ecut=    40.00 Ry     beta= 0.60
     Davidson diagonalization with overlap
     ethr =  9.58E-04,  avg # of iterations =  1.0

     total cpu time spent up to now is     1119.9 secs

     total energy              =    -938.19839676 Ry
     Harris-Foulkes estimate   =    -938.25406516 Ry
     estimated scf accuracy    <       1.39822312 Ry

     iteration # 19     ecut=    40.00 Ry     beta= 0.60
     Davidson diagonalization with overlap
     ethr =  9.58E-04,  avg # of iterations =  1.0

     total cpu time spent up to now is     1168.0 secs

     total energy              =    -938.17970386 Ry
     Harris-Foulkes estimate   =    -938.20989114 Ry
     estimated scf accuracy    <       0.79136709 Ry

     iteration # 20     ecut=    40.00 Ry     beta= 0.60
     Davidson diagonalization with overlap
     ethr =  7.91E-04,  avg # of iterations =  1.0

     total cpu time spent up to now is     1216.1 secs

     total energy              =    -938.18654673 Ry
     Harris-Foulkes estimate   =    -938.18809507 Ry
     estimated scf accuracy    <       0.51100136 Ry

     iteration # 21     ecut=    40.00 Ry     beta= 0.60
     Davidson diagonalization with overlap
     ethr =  5.11E-04,  avg # of iterations =  1.5

     total cpu time spent up to now is     1265.5 secs

     total energy              =    -938.14290877 Ry
     Harris-Foulkes estimate   =    -938.19388457 Ry
     estimated scf accuracy    <       0.43595210 Ry

     iteration # 22     ecut=    40.00 Ry     beta= 0.60
     Davidson diagonalization with overlap
     ethr =  4.36E-04,  avg # of iterations =  4.4

     total cpu time spent up to now is     1334.4 secs

     total energy              =    -938.18849579 Ry
     Harris-Foulkes estimate   =    -938.19686571 Ry
     estimated scf accuracy    <       0.09539036 Ry

     iteration # 23     ecut=    40.00 Ry     beta= 0.60
     Davidson diagonalization with overlap
     ethr =  9.54E-05,  avg # of iterations =  2.2

     total cpu time spent up to now is     1386.5 secs

     total energy              =    -938.18590696 Ry
     Harris-Foulkes estimate   =    -938.19163559 Ry
     estimated scf accuracy    <       0.03896998 Ry

     iteration # 24     ecut=    40.00 Ry     beta= 0.60
     Davidson diagonalization with overlap
     ethr =  3.90E-05,  avg # of iterations =  4.6

     total cpu time spent up to now is     1458.2 secs

     total energy              =    -938.18870839 Ry
     Harris-Foulkes estimate   =    -938.19324747 Ry
     estimated scf accuracy    <       0.04659587 Ry

     iteration # 25     ecut=    40.00 Ry     beta= 0.60
     Davidson diagonalization with overlap
     ethr =  3.90E-05,  avg # of iterations =  1.0

     total cpu time spent up to now is     1506.2 secs

     total energy              =    -938.18857088 Ry
     Harris-Foulkes estimate   =    -938.18989251 Ry
     estimated scf accuracy    <       0.01057693 Ry

     iteration # 26     ecut=    40.00 Ry     beta= 0.60
     Davidson diagonalization with overlap
     ethr =  1.06E-05,  avg # of iterations =  5.7

     total cpu time spent up to now is     1587.6 secs

     total energy              =    -938.18984999 Ry
     Harris-Foulkes estimate   =    -938.19082663 Ry
     estimated scf accuracy    <       0.00670017 Ry

     iteration # 27     ecut=    40.00 Ry     beta= 0.60
     Davidson diagonalization with overlap
     ethr =  6.70E-06,  avg # of iterations =  1.1

     total cpu time spent up to now is     1635.6 secs

     total energy              =    -938.19013526 Ry
     Harris-Foulkes estimate   =    -938.19020331 Ry
     estimated scf accuracy    <       0.00085038 Ry

     iteration # 28     ecut=    40.00 Ry     beta= 0.60
     Davidson diagonalization with overlap
     ethr =  8.50E-07,  avg # of iterations =  4.9

     total cpu time spent up to now is     1711.1 secs

     total energy              =    -938.19029055 Ry
     Harris-Foulkes estimate   =    -938.19032131 Ry
     estimated scf accuracy    <       0.00020809 Ry

     iteration # 29     ecut=    40.00 Ry     beta= 0.60
     Davidson diagonalization with overlap
     ethr =  2.08E-07,  avg # of iterations =  2.7

     total cpu time spent up to now is     1763.9 secs

     total energy              =    -938.19029351 Ry
     Harris-Foulkes estimate   =    -938.19030578 Ry
     estimated scf accuracy    <       0.00005747 Ry

     iteration # 30     ecut=    40.00 Ry     beta= 0.60
     Davidson diagonalization with overlap
     ethr =  5.75E-08,  avg # of iterations =  3.9

     total cpu time spent up to now is     1833.1 secs

     total energy              =    -938.19030472 Ry
     Harris-Foulkes estimate   =    -938.19030748 Ry
     estimated scf accuracy    <       0.00002333 Ry

     iteration # 31     ecut=    40.00 Ry     beta= 0.60
     Davidson diagonalization with overlap
     ethr =  2.33E-08,  avg # of iterations =  2.9

     total cpu time spent up to now is     1886.5 secs

     total energy              =    -938.19030525 Ry
     Harris-Foulkes estimate   =    -938.19030691 Ry
     estimated scf accuracy    <       0.00002178 Ry

     iteration # 32     ecut=    40.00 Ry     beta= 0.60
     Davidson diagonalization with overlap
     ethr =  2.18E-08,  avg # of iterations =  1.0

     total cpu time spent up to now is     1934.5 secs

     total energy              =    -938.19030519 Ry
     Harris-Foulkes estimate   =    -938.19030600 Ry
     estimated scf accuracy    <       0.00000835 Ry

     iteration # 33     ecut=    40.00 Ry     beta= 0.60
     Davidson diagonalization with overlap
     ethr =  8.35E-09,  avg # of iterations =  3.9

     total cpu time spent up to now is     2002.6 secs

     total energy              =    -938.19030624 Ry
     Harris-Foulkes estimate   =    -938.19030654 Ry
     estimated scf accuracy    <       0.00000989 Ry

     iteration # 34     ecut=    40.00 Ry     beta= 0.60
     Davidson diagonalization with overlap
     ethr =  8.35E-09,  avg # of iterations =  1.0

     total cpu time spent up to now is     2050.5 secs

     total energy              =    -938.19030461 Ry
     Harris-Foulkes estimate   =    -938.19030628 Ry
     estimated scf accuracy    <       0.00000746 Ry

     iteration # 35     ecut=    40.00 Ry     beta= 0.60
     Davidson diagonalization with overlap
     ethr =  7.46E-09,  avg # of iterations =  4.0

     total cpu time spent up to now is     2117.1 secs

     total energy              =    -938.19030554 Ry
     Harris-Foulkes estimate   =    -938.19030604 Ry
     estimated scf accuracy    <       0.00000331 Ry

     iteration # 36     ecut=    40.00 Ry     beta= 0.60
     Davidson diagonalization with overlap
     ethr =  3.31E-09,  avg # of iterations =  1.2

     total cpu time spent up to now is     2165.4 secs

     total energy              =    -938.19030567 Ry
     Harris-Foulkes estimate   =    -938.19030572 Ry
     estimated scf accuracy    <       0.00000030 Ry

     iteration # 37     ecut=    40.00 Ry     beta= 0.60
     Davidson diagonalization with overlap
     ethr =  2.99E-10,  avg # of iterations =  5.0

     total cpu time spent up to now is     2245.0 secs

     total energy              =    -938.19030580 Ry
     Harris-Foulkes estimate   =    -938.19030582 Ry
     estimated scf accuracy    <       0.00000036 Ry

     iteration # 38     ecut=    40.00 Ry     beta= 0.60
     Davidson diagonalization with overlap
     ethr =  2.99E-10,  avg # of iterations =  1.0

     total cpu time spent up to now is     2292.9 secs

     total energy              =    -938.19030579 Ry
     Harris-Foulkes estimate   =    -938.19030581 Ry
     estimated scf accuracy    <       0.00000017 Ry

     iteration # 39     ecut=    40.00 Ry     beta= 0.60
     Davidson diagonalization with overlap
     ethr =  1.68E-10,  avg # of iterations =  1.1

     total cpu time spent up to now is     2341.2 secs

     total energy              =    -938.19030579 Ry
     Harris-Foulkes estimate   =    -938.19030580 Ry
     estimated scf accuracy    <       0.00000006 Ry

     iteration # 40     ecut=    40.00 Ry     beta= 0.60
     Davidson diagonalization with overlap
     ethr =  5.68E-11,  avg # of iterations =  4.1

     total cpu time spent up to now is     2404.0 secs

     total energy              =    -938.19030580 Ry
     Harris-Foulkes estimate   =    -938.19030580 Ry
     estimated scf accuracy    <          8.1E-09 Ry

     iteration # 41     ecut=    40.00 Ry     beta= 0.60
     Davidson diagonalization with overlap
     ethr =  8.08E-12,  avg # of iterations =  4.6

     total cpu time spent up to now is     2478.5 secs

     total energy              =    -938.19030580 Ry
     Harris-Foulkes estimate   =    -938.19030580 Ry
     estimated scf accuracy    <          5.5E-09 Ry

     iteration # 42     ecut=    40.00 Ry     beta= 0.60
     Davidson diagonalization with overlap
     ethr =  5.50E-12,  avg # of iterations =  1.9

     total cpu time spent up to now is     2529.0 secs

     total energy              =    -938.19030580 Ry
     Harris-Foulkes estimate   =    -938.19030580 Ry
     estimated scf accuracy    <          8.2E-09 Ry

     iteration # 43     ecut=    40.00 Ry     beta= 0.60
     Davidson diagonalization with overlap
     ethr =  5.50E-12,  avg # of iterations =  2.0

     total cpu time spent up to now is     2580.1 secs

     total energy              =    -938.19030580 Ry
     Harris-Foulkes estimate   =    -938.19030580 Ry
     estimated scf accuracy    <          7.0E-10 Ry

     iteration # 44     ecut=    40.00 Ry     beta= 0.60
     Davidson diagonalization with overlap
     ethr =  7.02E-13,  avg # of iterations =  5.1

     total cpu time spent up to now is     2661.6 secs

     total energy              =    -938.19030580 Ry
     Harris-Foulkes estimate   =    -938.19030580 Ry
     estimated scf accuracy    <          2.6E-09 Ry

     iteration # 45     ecut=    40.00 Ry     beta= 0.60
     Davidson diagonalization with overlap
     ethr =  7.02E-13,  avg # of iterations =  1.0

     total cpu time spent up to now is     2709.3 secs

     total energy              =    -938.19030580 Ry
     Harris-Foulkes estimate   =    -938.19030580 Ry
     estimated scf accuracy    <          1.3E-09 Ry

     iteration # 46     ecut=    40.00 Ry     beta= 0.60
     Davidson diagonalization with overlap
     ethr =  7.02E-13,  avg # of iterations =  3.6

     total cpu time spent up to now is     2773.2 secs

     End of self-consistent calculation

     Number of k-points >= 100: set verbosity='high' to print the bands.

     the Fermi energy is    13.8369 ev

!    total energy              =    -938.19030580 Ry
     Harris-Foulkes estimate   =    -938.19030580 Ry
     estimated scf accuracy    <          3.0E-11 Ry

     The total energy is the sum of the following terms:

     one-electron contribution =    -272.61918830 Ry
     hartree contribution      =     170.15074089 Ry
     xc contribution           =    -130.99460835 Ry
     ewald contribution        =    -704.71827213 Ry
     smearing contrib. (-TS)   =      -0.00897790 Ry

     convergence has been achieved in  46 iterations

     Forces acting on atoms (cartesian axes, Ry/au):

     atom    1 type  2   force =    -0.00229662   -0.00126252    0.00501426
     atom    2 type  2   force =    -0.00107771   -0.00048322    0.00000000
     atom    3 type  1   force =     0.00209022    0.00128981   -0.00504031
     atom    4 type  2   force =    -0.00173565    0.00106478    0.00000000
     atom    5 type  2   force =    -0.00229662   -0.00126252   -0.00501426
     atom    6 type  1   force =     0.00182736    0.00081973    0.00000000
     atom    7 type  1   force =     0.00209022    0.00128981    0.00504031
     atom    8 type  1   force =     0.00139880   -0.00145589    0.00000000

     Total force =     0.011854     Total SCF correction =     0.000010


     Computing stress (Cartesian axis) and pressure

          total   stress  (Ry/bohr**3)                   (kbar)     P= -125.38
  -0.00091072   0.00000468  -0.00000000       -133.97      0.69     -0.00
   0.00000468  -0.00090979   0.00000000          0.69   -133.83      0.00
   0.00000000  -0.00000000  -0.00073638          0.00     -0.00   -108.33


     BFGS Geometry Optimization

     number of scf cycles    =   1
     number of bfgs steps    =   0

     enthalpy new            =    -938.1903057978 Ry

     new trust radius        =       0.1494958398 bohr
     new conv_thr            =            1.0E-10 Ry

     new unit-cell volume =   1010.34633 a.u.^3 (   149.71788 Ang^3 )
     density =      6.24534 g/cm^3

CELL_PARAMETERS (alat=  1.88972599)
  -1.487529202   2.576893835   4.880920472
  -1.487529202   2.576893835  -4.880920472
  -4.463821059  -2.577605969   0.000000000

ATOMIC_POSITIONS (angstrom)
Ti      -7.440067193   2.575528659   0.002604582
Ti      -2.975819838   3.435488941  -2.440460236
Nb      -4.462123338   2.577204913  -0.002618117
Ti      -4.464305909   0.859039533  -2.440460236
Ti      -5.952537991  -0.001365176  -0.002604582
Nb      -2.974317462   3.436162926   2.440460236
Nb      -2.974594136   0.000311078   0.002618117
Nb      -4.462685150   0.857736185   2.440460236


     NEW-OLD atomic charge density approx. for the potential

     Check: negative/imaginary core charge=   -0.000001    0.000000
     extrapolated charge   93.59242, renormalised to  100.00000

     total cpu time spent up to now is     2801.4 secs

     Self-consistent Calculation

     iteration #  1     ecut=    40.00 Ry     beta= 0.60
     Davidson diagonalization with overlap
     c_bands:  1 eigenvalues not converged
     c_bands:  1 eigenvalues not converged
     c_bands:  1 eigenvalues not converged
     c_bands:  3 eigenvalues not converged
     c_bands:  3 eigenvalues not converged
     c_bands:  1 eigenvalues not converged
     c_bands:  1 eigenvalues not converged
     c_bands:  2 eigenvalues not converged
     c_bands:  2 eigenvalues not converged
     c_bands:  1 eigenvalues not converged
     c_bands:  1 eigenvalues not converged
     c_bands:  2 eigenvalues not converged
     c_bands:  2 eigenvalues not converged
     c_bands:  2 eigenvalues not converged
     c_bands:  2 eigenvalues not converged
     c_bands:  1 eigenvalues not converged
     c_bands:  1 eigenvalues not converged
     c_bands:  1 eigenvalues not converged
     c_bands:  1 eigenvalues not converged
     c_bands:  1 eigenvalues not converged
     c_bands:  1 eigenvalues not converged
     c_bands:  1 eigenvalues not converged
     c_bands:  1 eigenvalues not converged
     c_bands:  1 eigenvalues not converged
     c_bands:  1 eigenvalues not converged
     c_bands:  2 eigenvalues not converged
     c_bands:  1 eigenvalues not converged
     c_bands:  2 eigenvalues not converged
     c_bands:  1 eigenvalues not converged
     c_bands:  2 eigenvalues not converged
     c_bands:  1 eigenvalues not converged
     c_bands:  1 eigenvalues not converged
     c_bands:  1 eigenvalues not converged
     c_bands:  2 eigenvalues not converged
     c_bands:  1 eigenvalues not converged
     c_bands:  1 eigenvalues not converged
     c_bands:  3 eigenvalues not converged
     c_bands:  1 eigenvalues not converged
     c_bands:  1 eigenvalues not converged
     c_bands:  1 eigenvalues not converged
     c_bands:  1 eigenvalues not converged
     c_bands:  2 eigenvalues not converged
     c_bands:  1 eigenvalues not converged
     c_bands:  1 eigenvalues not converged
     c_bands:  3 eigenvalues not converged
     c_bands:  1 eigenvalues not converged
     c_bands:  1 eigenvalues not converged
     c_bands:  2 eigenvalues not converged
     c_bands:  1 eigenvalues not converged
     c_bands:  1 eigenvalues not converged
     c_bands:  2 eigenvalues not converged
     c_bands:  1 eigenvalues not converged
     c_bands:  1 eigenvalues not converged
     c_bands:  1 eigenvalues not converged
     c_bands:  1 eigenvalues not converged
     c_bands:  1 eigenvalues not converged
     c_bands:  2 eigenvalues not converged
     c_bands:  1 eigenvalues not converged
     c_bands:  1 eigenvalues not converged
     c_bands:  1 eigenvalues not converged
     c_bands:  1 eigenvalues not converged
     c_bands:  1 eigenvalues not converged
     c_bands:  1 eigenvalues not converged
     c_bands:  1 eigenvalues not converged
     c_bands:  1 eigenvalues not converged
     c_bands:  1 eigenvalues not converged
     c_bands:  3 eigenvalues not converged
     c_bands:  2 eigenvalues not converged
     c_bands:  2 eigenvalues not converged
     c_bands:  2 eigenvalues not converged
     c_bands:  2 eigenvalues not converged
     c_bands:  1 eigenvalues not converged
     c_bands:  1 eigenvalues not converged
     c_bands:  1 eigenvalues not converged
     c_bands:  2 eigenvalues not converged
     c_bands:  1 eigenvalues not converged
     c_bands:  2 eigenvalues not converged
     c_bands:  1 eigenvalues not converged
     c_bands:  1 eigenvalues not converged
     c_bands:  1 eigenvalues not converged
     c_bands:  1 eigenvalues not converged
     c_bands:  1 eigenvalues not converged
     c_bands:  2 eigenvalues not converged
     c_bands:  1 eigenvalues not converged
     c_bands:  1 eigenvalues not converged
     c_bands:  1 eigenvalues not converged
     c_bands:  1 eigenvalues not converged
     c_bands:  1 eigenvalues not converged
     c_bands:  1 eigenvalues not converged
     c_bands:  2 eigenvalues not converged
     c_bands:  2 eigenvalues not converged
     c_bands:  2 eigenvalues not converged
     c_bands:  2 eigenvalues not converged
     c_bands:  1 eigenvalues not converged
     c_bands:  1 eigenvalues not converged
     c_bands:  1 eigenvalues not converged
     c_bands:  1 eigenvalues not converged
     c_bands:  1 eigenvalues not converged
     c_bands:  1 eigenvalues not converged
     c_bands:  2 eigenvalues not converged
     c_bands:  1 eigenvalues not converged
     c_bands:  1 eigenvalues not converged
     c_bands:  1 eigenvalues not converged
     c_bands:  2 eigenvalues not converged
     c_bands:  1 eigenvalues not converged
     c_bands:  1 eigenvalues not converged
     c_bands:  1 eigenvalues not converged
     c_bands:  1 eigenvalues not converged
     c_bands:  1 eigenvalues not converged
     c_bands:  1 eigenvalues not converged
     c_bands:  1 eigenvalues not converged
     c_bands:  2 eigenvalues not converged
     c_bands:  1 eigenvalues not converged
     c_bands:  1 eigenvalues not converged
     c_bands:  1 eigenvalues not converged
     c_bands:  3 eigenvalues not converged
     c_bands:  1 eigenvalues not converged
     c_bands:  1 eigenvalues not converged
     c_bands:  2 eigenvalues not converged
     c_bands:  1 eigenvalues not converged
     c_bands:  1 eigenvalues not converged
     c_bands:  1 eigenvalues not converged
     c_bands:  1 eigenvalues not converged
     c_bands:  1 eigenvalues not converged
     c_bands:  1 eigenvalues not converged
     c_bands:  3 eigenvalues not converged
     c_bands:  1 eigenvalues not converged
     c_bands:  1 eigenvalues not converged
     c_bands:  2 eigenvalues not converged
     c_bands:  1 eigenvalues not converged
     c_bands:  1 eigenvalues not converged
     c_bands:  1 eigenvalues not converged
     c_bands:  1 eigenvalues not converged
     c_bands:  1 eigenvalues not converged
     c_bands:  1 eigenvalues not converged
     c_bands:  1 eigenvalues not converged
     c_bands:  1 eigenvalues not converged
     c_bands:  1 eigenvalues not converged
     c_bands:  1 eigenvalues not converged
     c_bands:  1 eigenvalues not converged
     c_bands:  1 eigenvalues not converged
     c_bands:  2 eigenvalues not converged
     c_bands:  1 eigenvalues not converged
     c_bands:  1 eigenvalues not converged
     c_bands:  2 eigenvalues not converged
     c_bands:  2 eigenvalues not converged
     c_bands:  2 eigenvalues not converged
     c_bands:  1 eigenvalues not converged
     c_bands:  1 eigenvalues not converged
     c_bands:  1 eigenvalues not converged
     c_bands:  1 eigenvalues not converged
     c_bands:  1 eigenvalues not converged
     c_bands:  1 eigenvalues not converged
     c_bands:  1 eigenvalues not converged
     c_bands:  1 eigenvalues not converged
     c_bands:  2 eigenvalues not converged
     c_bands:  1 eigenvalues not converged
     c_bands:  1 eigenvalues not converged
     c_bands:  2 eigenvalues not converged
     c_bands:  1 eigenvalues not converged
     c_bands:  1 eigenvalues not converged
     c_bands:  2 eigenvalues not converged
     c_bands:  1 eigenvalues not converged
     c_bands:  1 eigenvalues not converged
     c_bands:  1 eigenvalues not converged
     c_bands:  1 eigenvalues not converged
     c_bands:  1 eigenvalues not converged
     c_bands:  2 eigenvalues not converged
     c_bands:  1 eigenvalues not converged
     c_bands:  1 eigenvalues not converged
     c_bands:  2 eigenvalues not converged
     c_bands:  1 eigenvalues not converged
     c_bands:  1 eigenvalues not converged
     c_bands:  1 eigenvalues not converged
     c_bands:  1 eigenvalues not converged
     c_bands:  1 eigenvalues not converged
     c_bands:  3 eigenvalues not converged
     c_bands:  1 eigenvalues not converged
     c_bands:  1 eigenvalues not converged
     c_bands:  1 eigenvalues not converged
     c_bands:  1 eigenvalues not converged
     c_bands:  1 eigenvalues not converged
     c_bands:  2 eigenvalues not converged
     ethr =  1.00E-06,  avg # of iterations = 19.4

     total cpu time spent up to now is     3038.2 secs

     total energy              =    -928.64273452 Ry
     Harris-Foulkes estimate   =    -950.30936896 Ry
     estimated scf accuracy    <      10.16808900 Ry

     iteration #  2     ecut=    40.00 Ry     beta= 0.60
     Davidson diagonalization with overlap
     ethr =  1.00E-02,  avg # of iterations =  5.3

     total cpu time spent up to now is     3144.1 secs

     total energy              =    -937.14793595 Ry
     Harris-Foulkes estimate   =    -953.29392727 Ry
     estimated scf accuracy    <      53.53413226 Ry

     iteration #  3     ecut=    40.00 Ry     beta= 0.60
     Davidson diagonalization with overlap
     ethr =  1.00E-02,  avg # of iterations =  3.5

     total cpu time spent up to now is     3210.4 secs

     total energy              =    -938.46535472 Ry
     Harris-Foulkes estimate   =    -940.59510485 Ry
     estimated scf accuracy    <      10.98788904 Ry

     iteration #  4     ecut=    40.00 Ry     beta= 0.60
     Davidson diagonalization with overlap
     ethr =  1.00E-02,  avg # of iterations =  2.1

     total cpu time spent up to now is     3261.1 secs

     total energy              =    -938.29035555 Ry
     Harris-Foulkes estimate   =    -939.19858937 Ry
     estimated scf accuracy    <       9.33128693 Ry

     iteration #  5     ecut=    40.00 Ry     beta= 0.60
     Davidson diagonalization with overlap
     ethr =  9.33E-03,  avg # of iterations =  1.0

     total cpu time spent up to now is     3308.1 secs

     total energy              =    -937.94188680 Ry
     Harris-Foulkes estimate   =    -938.61317971 Ry
     estimated scf accuracy    <       4.66402480 Ry

     iteration #  6     ecut=    40.00 Ry     beta= 0.60
     Davidson diagonalization with overlap
     ethr =  4.66E-03,  avg # of iterations =  3.5

     total cpu time spent up to now is     3364.1 secs

     total energy              =    -938.07465278 Ry
     Harris-Foulkes estimate   =    -938.16682079 Ry
     estimated scf accuracy    <       1.37413854 Ry

     iteration #  7     ecut=    40.00 Ry     beta= 0.60
     Davidson diagonalization with overlap
     ethr =  1.37E-03,  avg # of iterations =  5.1

     total cpu time spent up to now is     3442.6 secs

     total energy              =    -938.31337997 Ry
     Harris-Foulkes estimate   =    -938.28481266 Ry
     estimated scf accuracy    <       0.18791119 Ry

     iteration #  8     ecut=    40.00 Ry     beta= 0.60
     Davidson diagonalization with overlap
     ethr =  1.88E-04,  avg # of iterations =  3.7

     total cpu time spent up to now is     3500.5 secs

     total energy              =    -938.36250385 Ry
     Harris-Foulkes estimate   =    -938.33131861 Ry
     estimated scf accuracy    <       0.44363792 Ry

     iteration #  9     ecut=    40.00 Ry     beta= 0.60
     Davidson diagonalization with overlap
     ethr =  1.88E-04,  avg # of iterations =  2.9

     total cpu time spent up to now is     3555.9 secs

     total energy              =    -938.37006670 Ry
     Harris-Foulkes estimate   =    -938.37643349 Ry
     estimated scf accuracy    <       0.85485491 Ry

     iteration # 10     ecut=    40.00 Ry     beta= 0.60
     Davidson diagonalization with overlap
     ethr =  1.88E-04,  avg # of iterations =  1.0

     total cpu time spent up to now is     3602.8 secs

     total energy              =    -938.11974833 Ry
     Harris-Foulkes estimate   =    -938.37150485 Ry
     estimated scf accuracy    <       0.86363194 Ry

     iteration # 11     ecut=    40.00 Ry     beta= 0.60
     Davidson diagonalization with overlap
     ethr =  1.88E-04,  avg # of iterations =  5.3

     total cpu time spent up to now is     3696.5 secs

     total energy              =    -938.22045745 Ry
     Harris-Foulkes estimate   =    -938.24153770 Ry
     estimated scf accuracy    <       0.07642167 Ry

     iteration # 12     ecut=    40.00 Ry     beta= 0.60
     Davidson diagonalization with overlap
     ethr =  7.64E-05,  avg # of iterations =  4.7

     total cpu time spent up to now is     3767.3 secs

     total energy              =    -938.23759800 Ry
     Harris-Foulkes estimate   =    -938.24607639 Ry
     estimated scf accuracy    <       0.14984852 Ry

     iteration # 13     ecut=    40.00 Ry     beta= 0.60
     Davidson diagonalization with overlap
     ethr =  7.64E-05,  avg # of iterations =  1.0

     total cpu time spent up to now is     3814.3 secs

     total energy              =    -938.22632646 Ry
     Harris-Foulkes estimate   =    -938.24014592 Ry
     estimated scf accuracy    <       0.09838485 Ry

     iteration # 14     ecut=    40.00 Ry     beta= 0.60
     Davidson diagonalization with overlap
     ethr =  7.64E-05,  avg # of iterations =  3.1

     total cpu time spent up to now is     3870.7 secs

     total energy              =    -938.23235962 Ry
     Harris-Foulkes estimate   =    -938.23358987 Ry
     estimated scf accuracy    <       0.00962291 Ry

     iteration # 15     ecut=    40.00 Ry     beta= 0.60
     Davidson diagonalization with overlap
     ethr =  9.62E-06,  avg # of iterations =  4.8

     total cpu time spent up to now is     3939.2 secs

     total energy              =    -938.23342419 Ry
     Harris-Foulkes estimate   =    -938.23387685 Ry
     estimated scf accuracy    <       0.00184540 Ry

     iteration # 16     ecut=    40.00 Ry     beta= 0.60
     Davidson diagonalization with overlap
     ethr =  1.85E-06,  avg # of iterations =  5.9

     total cpu time spent up to now is     4025.8 secs

     total energy              =    -938.23353428 Ry
     Harris-Foulkes estimate   =    -938.23399905 Ry
     estimated scf accuracy    <       0.00294824 Ry

     iteration # 17     ecut=    40.00 Ry     beta= 0.60
     Davidson diagonalization with overlap
     ethr =  1.85E-06,  avg # of iterations =  2.2

     total cpu time spent up to now is     4076.1 secs

     total energy              =    -938.23363243 Ry
     Harris-Foulkes estimate   =    -938.23367807 Ry
     estimated scf accuracy    <       0.00031345 Ry

     iteration # 18     ecut=    40.00 Ry     beta= 0.60
     Davidson diagonalization with overlap
     ethr =  3.13E-07,  avg # of iterations =  5.0

     total cpu time spent up to now is     4153.3 secs

     total energy              =    -938.23376618 Ry
     Harris-Foulkes estimate   =    -938.23378925 Ry
     estimated scf accuracy    <       0.00036827 Ry

     iteration # 19     ecut=    40.00 Ry     beta= 0.60
     Davidson diagonalization with overlap
     ethr =  3.13E-07,  avg # of iterations =  1.0

     total cpu time spent up to now is     4200.4 secs

     total energy              =    -938.23375795 Ry
     Harris-Foulkes estimate   =    -938.23377244 Ry
     estimated scf accuracy    <       0.00021390 Ry

     iteration # 20     ecut=    40.00 Ry     beta= 0.60
     Davidson diagonalization with overlap
     ethr =  2.14E-07,  avg # of iterations =  1.0

     total cpu time spent up to now is     4247.5 secs

     total energy              =    -938.23375105 Ry
     Harris-Foulkes estimate   =    -938.23376204 Ry
     estimated scf accuracy    <       0.00009464 Ry

     iteration # 21     ecut=    40.00 Ry     beta= 0.60
     Davidson diagonalization with overlap
     ethr =  9.46E-08,  avg # of iterations =  4.0

     total cpu time spent up to now is     4307.7 secs

     total energy              =    -938.23375814 Ry
     Harris-Foulkes estimate   =    -938.23375860 Ry
     estimated scf accuracy    <       0.00000344 Ry

     iteration # 22     ecut=    40.00 Ry     beta= 0.60
     Davidson diagonalization with overlap
     ethr =  3.44E-09,  avg # of iterations =  5.3

     total cpu time spent up to now is     4390.0 secs

     total energy              =    -938.23376071 Ry
     Harris-Foulkes estimate   =    -938.23376124 Ry
     estimated scf accuracy    <       0.00000394 Ry

     iteration # 23     ecut=    40.00 Ry     beta= 0.60
     Davidson diagonalization with overlap
     ethr =  3.44E-09,  avg # of iterations =  1.0

     total cpu time spent up to now is     4437.1 secs

     total energy              =    -938.23376078 Ry
     Harris-Foulkes estimate   =    -938.23376086 Ry
     estimated scf accuracy    <       0.00000060 Ry

     iteration # 24     ecut=    40.00 Ry     beta= 0.60
     Davidson diagonalization with overlap
     ethr =  6.04E-10,  avg # of iterations =  4.1

     total cpu time spent up to now is     4508.2 secs

     total energy              =    -938.23376092 Ry
     Harris-Foulkes estimate   =    -938.23376094 Ry
     estimated scf accuracy    <       0.00000020 Ry

     iteration # 25     ecut=    40.00 Ry     beta= 0.60
     Davidson diagonalization with overlap
     ethr =  2.01E-10,  avg # of iterations =  1.1

     total cpu time spent up to now is     4555.6 secs

     total energy              =    -938.23376093 Ry
     Harris-Foulkes estimate   =    -938.23376093 Ry
     estimated scf accuracy    <       0.00000008 Ry

     iteration # 26     ecut=    40.00 Ry     beta= 0.60
     Davidson diagonalization with overlap
     ethr =  7.55E-11,  avg # of iterations =  1.6

     total cpu time spent up to now is     4604.3 secs

     total energy              =    -938.23376092 Ry
     Harris-Foulkes estimate   =    -938.23376093 Ry
     estimated scf accuracy    <       0.00000006 Ry

     iteration # 27     ecut=    40.00 Ry     beta= 0.60
     Davidson diagonalization with overlap
     ethr =  6.46E-11,  avg # of iterations =  2.3

     total cpu time spent up to now is     4654.9 secs

     total energy              =    -938.23376092 Ry
     Harris-Foulkes estimate   =    -938.23376093 Ry
     estimated scf accuracy    <       0.00000002 Ry

     iteration # 28     ecut=    40.00 Ry     beta= 0.60
     Davidson diagonalization with overlap
     ethr =  1.84E-11,  avg # of iterations =  4.0

     total cpu time spent up to now is     4721.7 secs

     total energy              =    -938.23376093 Ry
     Harris-Foulkes estimate   =    -938.23376093 Ry
     estimated scf accuracy    <          1.7E-09 Ry

     iteration # 29     ecut=    40.00 Ry     beta= 0.60
     Davidson diagonalization with overlap
     ethr =  1.70E-12,  avg # of iterations =  3.7

     total cpu time spent up to now is     4782.0 secs

     total energy              =    -938.23376093 Ry
     Harris-Foulkes estimate   =    -938.23376093 Ry
     estimated scf accuracy    <          7.0E-10 Ry

     iteration # 30     ecut=    40.00 Ry     beta= 0.60
     Davidson diagonalization with overlap
     ethr =  6.97E-13,  avg # of iterations =  3.9

     total cpu time spent up to now is     4847.6 secs

     total energy              =    -938.23376093 Ry
     Harris-Foulkes estimate   =    -938.23376093 Ry
     estimated scf accuracy    <          1.3E-09 Ry

     iteration # 31     ecut=    40.00 Ry     beta= 0.60
     Davidson diagonalization with overlap
     ethr =  6.97E-13,  avg # of iterations =  1.0

     total cpu time spent up to now is     4894.6 secs

     total energy              =    -938.23376093 Ry
     Harris-Foulkes estimate   =    -938.23376093 Ry
     estimated scf accuracy    <          4.0E-10 Ry

     iteration # 32     ecut=    40.00 Ry     beta= 0.60
     Davidson diagonalization with overlap
     ethr =  3.99E-13,  avg # of iterations =  3.5

     total cpu time spent up to now is     4954.2 secs

     End of self-consistent calculation

     Number of k-points >= 100: set verbosity='high' to print the bands.

     the Fermi energy is    14.9337 ev

!    total energy              =    -938.23376093 Ry
     Harris-Foulkes estimate   =    -938.23376093 Ry
     estimated scf accuracy    <          1.3E-11 Ry

     The total energy is the sum of the following terms:

     one-electron contribution =    -250.15269774 Ry
     hartree contribution      =     163.43762518 Ry
     xc contribution           =    -131.44081668 Ry
     ewald contribution        =    -720.07014183 Ry
     smearing contrib. (-TS)   =      -0.00772986 Ry

     convergence has been achieved in  32 iterations

     Forces acting on atoms (cartesian axes, Ry/au):

     atom    1 type  2   force =    -0.00179855   -0.00097765    0.00650848
     atom    2 type  2   force =     0.00134872   -0.00066131    0.00000000
     atom    3 type  1   force =     0.00153542    0.00097260   -0.00729063
     atom    4 type  2   force =    -0.00360049    0.00137016    0.00000000
     atom    5 type  2   force =    -0.00179855   -0.00097765   -0.00650848
     atom    6 type  1   force =     0.00294872    0.00399133    0.00000000
     atom    7 type  1   force =     0.00153542    0.00097260    0.00729063
     atom    8 type  1   force =    -0.00017070   -0.00469008    0.00000000

     Total force =     0.016424     Total SCF correction =     0.000009


     Computing stress (Cartesian axis) and pressure

          total   stress  (Ry/bohr**3)                   (kbar)     P=  -57.41
  -0.00045955   0.00000503   0.00000000        -67.60      0.74      0.00
   0.00000503  -0.00045871   0.00000000          0.74    -67.48      0.00
   0.00000000   0.00000000  -0.00025260          0.00      0.00    -37.16


     number of scf cycles    =   2
     number of bfgs steps    =   1

     enthalpy old            =    -938.1903057978 Ry
     enthalpy new            =    -938.2337609264 Ry

     CASE: enthalpy_new < enthalpy_old

     new trust radius        =       0.1329653682 bohr
     new conv_thr            =            1.0E-10 Ry

     new unit-cell volume =    957.39988 a.u.^3 (   141.87202 Ang^3 )
     density =      6.59072 g/cm^3

CELL_PARAMETERS (alat=  1.88972599)
  -1.455822822   2.522755778   4.824656144
  -1.455822822   2.522755778  -4.824656144
  -4.371058256  -2.524828349   0.000000000

ATOMIC_POSITIONS (angstrom)
Ti      -7.285502857   2.519153497   0.008565560
Ti      -2.911593207   3.362486410  -2.412328072
Nb      -4.366806736   2.523258653  -0.009292401
Ti      -4.373980456   0.841311773  -2.412328072
Ti      -5.829680035  -0.003602281  -0.008565560
Nb      -2.908655572   3.367326994   2.412328072
Nb      -2.910983914   0.000502875   0.009292401
Nb      -4.369291474   0.834584198   2.412328072


     NEW-OLD atomic charge density approx. for the potential

     Check: negative/imaginary core charge=   -0.000001    0.000000
     extrapolated charge   94.69159, renormalised to  100.00000

     total cpu time spent up to now is     4983.0 secs

     Self-consistent Calculation

     iteration #  1     ecut=    40.00 Ry     beta= 0.60
     Davidson diagonalization with overlap
     c_bands:  1 eigenvalues not converged
     c_bands:  1 eigenvalues not converged
     c_bands:  1 eigenvalues not converged
     c_bands:  1 eigenvalues not converged
     c_bands:  2 eigenvalues not converged
     c_bands:  3 eigenvalues not converged
     c_bands:  1 eigenvalues not converged
     c_bands:  2 eigenvalues not converged
     c_bands:  1 eigenvalues not converged
     c_bands:  2 eigenvalues not converged
     c_bands:  1 eigenvalues not converged
     c_bands:  1 eigenvalues not converged
     c_bands:  1 eigenvalues not converged
     c_bands:  1 eigenvalues not converged
     c_bands:  3 eigenvalues not converged
     c_bands:  3 eigenvalues not converged
     c_bands:  1 eigenvalues not converged
     c_bands:  1 eigenvalues not converged
     c_bands:  1 eigenvalues not converged
     c_bands:  2 eigenvalues not converged
     c_bands:  2 eigenvalues not converged
     c_bands:  1 eigenvalues not converged
     c_bands:  1 eigenvalues not converged
     c_bands:  1 eigenvalues not converged
     c_bands:  2 eigenvalues not converged
     c_bands:  1 eigenvalues not converged
     c_bands:  2 eigenvalues not converged
     c_bands:  3 eigenvalues not converged
     c_bands:  1 eigenvalues not converged
     c_bands:  2 eigenvalues not converged
     c_bands:  3 eigenvalues not converged
     c_bands:  1 eigenvalues not converged
     c_bands:  1 eigenvalues not converged
     c_bands:  1 eigenvalues not converged
     c_bands:  1 eigenvalues not converged
     c_bands:  2 eigenvalues not converged
     c_bands:  2 eigenvalues not converged
     c_bands:  2 eigenvalues not converged
     c_bands:  2 eigenvalues not converged
     c_bands:  2 eigenvalues not converged
     c_bands:  2 eigenvalues not converged
     c_bands:  1 eigenvalues not converged
     c_bands:  1 eigenvalues not converged
     c_bands:  2 eigenvalues not converged
     c_bands:  1 eigenvalues not converged
     c_bands:  1 eigenvalues not converged
     c_bands:  1 eigenvalues not converged
     c_bands:  1 eigenvalues not converged
     c_bands:  2 eigenvalues not converged
     c_bands:  1 eigenvalues not converged
     c_bands:  1 eigenvalues not converged
     c_bands:  1 eigenvalues not converged
     c_bands:  1 eigenvalues not converged
     c_bands:  2 eigenvalues not converged
     c_bands:  1 eigenvalues not converged
     c_bands:  1 eigenvalues not converged
     c_bands:  2 eigenvalues not converged
     c_bands:  1 eigenvalues not converged
     c_bands:  1 eigenvalues not converged
     c_bands:  1 eigenvalues not converged
     c_bands:  1 eigenvalues not converged
     c_bands:  2 eigenvalues not converged
     c_bands:  1 eigenvalues not converged
     c_bands:  1 eigenvalues not converged
     c_bands:  1 eigenvalues not converged
     c_bands:  2 eigenvalues not converged
     c_bands:  2 eigenvalues not converged
     c_bands:  1 eigenvalues not converged
     c_bands:  2 eigenvalues not converged
     c_bands:  2 eigenvalues not converged
     c_bands:  2 eigenvalues not converged
     c_bands:  2 eigenvalues not converged
     c_bands:  2 eigenvalues not converged
     c_bands:  1 eigenvalues not converged
     c_bands:  1 eigenvalues not converged
     c_bands:  1 eigenvalues not converged
     c_bands:  2 eigenvalues not converged
     c_bands:  2 eigenvalues not converged
     c_bands:  1 eigenvalues not converged
     c_bands:  1 eigenvalues not converged
     c_bands:  1 eigenvalues not converged
     c_bands:  1 eigenvalues not converged
     c_bands:  1 eigenvalues not converged
     c_bands:  1 eigenvalues not converged
     c_bands:  1 eigenvalues not converged
     c_bands:  1 eigenvalues not converged
     c_bands:  1 eigenvalues not converged
     c_bands:  1 eigenvalues not converged
     c_bands:  2 eigenvalues not converged
     c_bands:  2 eigenvalues not converged
     c_bands:  1 eigenvalues not converged
     c_bands:  1 eigenvalues not converged
     c_bands:  2 eigenvalues not converged
     c_bands:  1 eigenvalues not converged
     c_bands:  1 eigenvalues not converged
     c_bands:  1 eigenvalues not converged
     c_bands:  3 eigenvalues not converged
     c_bands:  2 eigenvalues not converged
     c_bands:  1 eigenvalues not converged
     c_bands:  2 eigenvalues not converged
     c_bands:  1 eigenvalues not converged
     c_bands:  1 eigenvalues not converged
     c_bands:  1 eigenvalues not converged
     c_bands:  1 eigenvalues not converged
     c_bands:  1 eigenvalues not converged
     c_bands:  1 eigenvalues not converged
     c_bands:  1 eigenvalues not converged
     c_bands:  1 eigenvalues not converged
     c_bands:  1 eigenvalues not converged
     c_bands:  3 eigenvalues not converged
     c_bands:  2 eigenvalues not converged
     c_bands:  1 eigenvalues not converged
     c_bands:  2 eigenvalues not converged
     c_bands:  1 eigenvalues not converged
     c_bands:  2 eigenvalues not converged
     c_bands:  1 eigenvalues not converged
     c_bands:  2 eigenvalues not converged
     c_bands:  1 eigenvalues not converged
     c_bands:  1 eigenvalues not converged
     c_bands:  1 eigenvalues not converged
     c_bands:  1 eigenvalues not converged
     c_bands:  1 eigenvalues not converged
     c_bands:  1 eigenvalues not converged
     c_bands:  1 eigenvalues not converged
     c_bands:  1 eigenvalues not converged
     c_bands:  1 eigenvalues not converged
     c_bands:  2 eigenvalues not converged
     c_bands:  3 eigenvalues not converged
     c_bands:  1 eigenvalues not converged
     c_bands:  1 eigenvalues not converged
     c_bands:  1 eigenvalues not converged
     c_bands:  2 eigenvalues not converged
     c_bands:  1 eigenvalues not converged
     c_bands:  1 eigenvalues not converged
     c_bands:  1 eigenvalues not converged
     c_bands:  1 eigenvalues not converged
     c_bands:  1 eigenvalues not converged
     c_bands:  1 eigenvalues not converged
     c_bands:  2 eigenvalues not converged
     c_bands:  1 eigenvalues not converged
     c_bands:  3 eigenvalues not converged
     c_bands:  3 eigenvalues not converged
     c_bands:  1 eigenvalues not converged
     c_bands:  1 eigenvalues not converged
     c_bands:  2 eigenvalues not converged
     c_bands:  2 eigenvalues not converged
     c_bands:  1 eigenvalues not converged
     c_bands:  2 eigenvalues not converged
     c_bands:  2 eigenvalues not converged
     c_bands:  3 eigenvalues not converged
     c_bands:  2 eigenvalues not converged
     c_bands:  1 eigenvalues not converged
     c_bands:  1 eigenvalues not converged
     c_bands:  1 eigenvalues not converged
     c_bands:  2 eigenvalues not converged
     c_bands:  1 eigenvalues not converged
     c_bands:  1 eigenvalues not converged
     c_bands:  2 eigenvalues not converged
     c_bands:  2 eigenvalues not converged
     c_bands:  1 eigenvalues not converged
     c_bands:  1 eigenvalues not converged
     c_bands:  1 eigenvalues not converged
     c_bands:  2 eigenvalues not converged
     c_bands:  2 eigenvalues not converged
     c_bands:  3 eigenvalues not converged
     c_bands:  1 eigenvalues not converged
     c_bands:  1 eigenvalues not converged
     c_bands:  1 eigenvalues not converged
     c_bands:  2 eigenvalues not converged
     c_bands:  1 eigenvalues not converged
     c_bands:  1 eigenvalues not converged
     c_bands:  1 eigenvalues not converged
     c_bands:  1 eigenvalues not converged
     c_bands:  1 eigenvalues not converged
     c_bands:  2 eigenvalues not converged
     c_bands:  1 eigenvalues not converged
     c_bands:  1 eigenvalues not converged
     c_bands:  3 eigenvalues not converged
     c_bands:  1 eigenvalues not converged
     c_bands:  2 eigenvalues not converged
     c_bands:  1 eigenvalues not converged
     c_bands:  2 eigenvalues not converged
     ethr =  1.00E-06,  avg # of iterations = 18.8

     total cpu time spent up to now is     5204.1 secs

     total energy              =    -933.64519178 Ry
     Harris-Foulkes estimate   =    -947.42822114 Ry
     estimated scf accuracy    <       4.70236313 Ry

     iteration #  2     ecut=    40.00 Ry     beta= 0.60
     Davidson diagonalization with overlap
     ethr =  4.70E-03,  avg # of iterations =  5.4

     total cpu time spent up to now is     5311.5 secs

     total energy              =    -937.07203900 Ry
     Harris-Foulkes estimate   =    -946.09254942 Ry
     estimated scf accuracy    <      33.54836437 Ry

     iteration #  3     ecut=    40.00 Ry     beta= 0.60
     Davidson diagonalization with overlap
     ethr =  4.70E-03,  avg # of iterations =  5.0

     total cpu time spent up to now is     5393.2 secs

     total energy              =    -938.40283663 Ry
     Harris-Foulkes estimate   =    -939.34886176 Ry
     estimated scf accuracy    <       4.60812613 Ry

     iteration #  4     ecut=    40.00 Ry     beta= 0.60
     Davidson diagonalization with overlap
     ethr =  4.61E-03,  avg # of iterations =  1.3

     total cpu time spent up to now is     5440.8 secs

     total energy              =    -938.33964701 Ry
     Harris-Foulkes estimate   =    -938.64443745 Ry
     estimated scf accuracy    <       3.58318835 Ry

     iteration #  5     ecut=    40.00 Ry     beta= 0.60
     Davidson diagonalization with overlap
     ethr =  3.58E-03,  avg # of iterations =  1.2

     total cpu time spent up to now is     5488.2 secs

     total energy              =    -938.17455333 Ry
     Harris-Foulkes estimate   =    -938.44841738 Ry
     estimated scf accuracy    <       2.20299680 Ry

     iteration #  6     ecut=    40.00 Ry     beta= 0.60
     Davidson diagonalization with overlap
     ethr =  2.20E-03,  avg # of iterations =  1.9

     total cpu time spent up to now is     5537.7 secs

     total energy              =    -938.16601696 Ry
     Harris-Foulkes estimate   =    -938.23669117 Ry
     estimated scf accuracy    <       0.92530060 Ry

     iteration #  7     ecut=    40.00 Ry     beta= 0.60
     Davidson diagonalization with overlap
     ethr =  9.25E-04,  avg # of iterations =  4.6

     total cpu time spent up to now is     5605.9 secs

     total energy              =    -938.27747574 Ry
     Harris-Foulkes estimate   =    -938.27006556 Ry
     estimated scf accuracy    <       0.13011781 Ry

     iteration #  8     ecut=    40.00 Ry     beta= 0.60
     Davidson diagonalization with overlap
     ethr =  1.30E-04,  avg # of iterations =  4.6

     total cpu time spent up to now is     5669.6 secs

     total energy              =    -938.29032077 Ry
     Harris-Foulkes estimate   =    -938.28583185 Ry
     estimated scf accuracy    <       0.18720360 Ry

     iteration #  9     ecut=    40.00 Ry     beta= 0.60
     Davidson diagonalization with overlap
     ethr =  1.30E-04,  avg # of iterations =  1.3

     total cpu time spent up to now is     5717.5 secs

     total energy              =    -938.28719486 Ry
     Harris-Foulkes estimate   =    -938.29324340 Ry
     estimated scf accuracy    <       0.26108491 Ry

     iteration # 10     ecut=    40.00 Ry     beta= 0.60
     Davidson diagonalization with overlap
     ethr =  1.30E-04,  avg # of iterations =  1.0

     total cpu time spent up to now is     5764.4 secs

     total energy              =    -938.22898952 Ry
     Harris-Foulkes estimate   =    -938.28830885 Ry
     estimated scf accuracy    <       0.25587626 Ry

     iteration # 11     ecut=    40.00 Ry     beta= 0.60
     Davidson diagonalization with overlap
     ethr =  1.30E-04,  avg # of iterations =  3.1

     total cpu time spent up to now is     5825.3 secs

     total energy              =    -938.24164415 Ry
     Harris-Foulkes estimate   =    -938.24831895 Ry
     estimated scf accuracy    <       0.06920318 Ry

     iteration # 12     ecut=    40.00 Ry     beta= 0.60
     Davidson diagonalization with overlap
     ethr =  6.92E-05,  avg # of iterations =  2.0

     total cpu time spent up to now is     5875.0 secs

     total energy              =    -938.24055137 Ry
     Harris-Foulkes estimate   =    -938.24427293 Ry
     estimated scf accuracy    <       0.02583056 Ry

     iteration # 13     ecut=    40.00 Ry     beta= 0.60
     Davidson diagonalization with overlap
     ethr =  2.58E-05,  avg # of iterations =  5.6

     total cpu time spent up to now is     5953.1 secs

     total energy              =    -938.24395199 Ry
     Harris-Foulkes estimate   =    -938.24425647 Ry
     estimated scf accuracy    <       0.00131068 Ry

     iteration # 14     ecut=    40.00 Ry     beta= 0.60
     Davidson diagonalization with overlap
     ethr =  1.31E-06,  avg # of iterations =  4.9

     total cpu time spent up to now is     6025.5 secs

     total energy              =    -938.24416434 Ry
     Harris-Foulkes estimate   =    -938.24423034 Ry
     estimated scf accuracy    <       0.00052245 Ry

     iteration # 15     ecut=    40.00 Ry     beta= 0.60
     Davidson diagonalization with overlap
     ethr =  5.22E-07,  avg # of iterations =  1.2

     total cpu time spent up to now is     6072.8 secs

     total energy              =    -938.24417098 Ry
     Harris-Foulkes estimate   =    -938.24418959 Ry
     estimated scf accuracy    <       0.00011618 Ry

     iteration # 16     ecut=    40.00 Ry     beta= 0.60
     Davidson diagonalization with overlap
     ethr =  1.16E-07,  avg # of iterations =  4.4

     total cpu time spent up to now is     6143.2 secs

     total energy              =    -938.24418581 Ry
     Harris-Foulkes estimate   =    -938.24420440 Ry
     estimated scf accuracy    <       0.00014301 Ry

     iteration # 17     ecut=    40.00 Ry     beta= 0.60
     Davidson diagonalization with overlap
     ethr =  1.16E-07,  avg # of iterations =  1.1

     total cpu time spent up to now is     6190.3 secs

     total energy              =    -938.24418874 Ry
     Harris-Foulkes estimate   =    -938.24419132 Ry
     estimated scf accuracy    <       0.00002239 Ry

     iteration # 18     ecut=    40.00 Ry     beta= 0.60
     Davidson diagonalization with overlap
     ethr =  2.24E-08,  avg # of iterations =  4.5

     total cpu time spent up to now is     6260.7 secs

     total energy              =    -938.24419337 Ry
     Harris-Foulkes estimate   =    -938.24419437 Ry
     estimated scf accuracy    <       0.00000856 Ry

     iteration # 19     ecut=    40.00 Ry     beta= 0.60
     Davidson diagonalization with overlap
     ethr =  8.56E-09,  avg # of iterations =  1.2

     total cpu time spent up to now is     6308.1 secs

     total energy              =    -938.24419377 Ry
     Harris-Foulkes estimate   =    -938.24419392 Ry
     estimated scf accuracy    <       0.00000249 Ry

     iteration # 20     ecut=    40.00 Ry     beta= 0.60
     Davidson diagonalization with overlap
     ethr =  2.49E-09,  avg # of iterations =  3.7

     total cpu time spent up to now is     6365.6 secs

     total energy              =    -938.24419375 Ry
     Harris-Foulkes estimate   =    -938.24419399 Ry
     estimated scf accuracy    <       0.00000200 Ry

     iteration # 21     ecut=    40.00 Ry     beta= 0.60
     Davidson diagonalization with overlap
     ethr =  2.00E-09,  avg # of iterations =  1.2

     total cpu time spent up to now is     6413.1 secs

     total energy              =    -938.24419375 Ry
     Harris-Foulkes estimate   =    -938.24419382 Ry
     estimated scf accuracy    <       0.00000043 Ry

     iteration # 22     ecut=    40.00 Ry     beta= 0.60
     Davidson diagonalization with overlap
     ethr =  4.33E-10,  avg # of iterations =  4.4

     total cpu time spent up to now is     6484.9 secs

     total energy              =    -938.24419386 Ry
     Harris-Foulkes estimate   =    -938.24419388 Ry
     estimated scf accuracy    <       0.00000028 Ry

     iteration # 23     ecut=    40.00 Ry     beta= 0.60
     Davidson diagonalization with overlap
     ethr =  2.83E-10,  avg # of iterations =  1.0

     total cpu time spent up to now is     6531.8 secs

     total energy              =    -938.24419386 Ry
     Harris-Foulkes estimate   =    -938.24419387 Ry
     estimated scf accuracy    <       0.00000011 Ry

     iteration # 24     ecut=    40.00 Ry     beta= 0.60
     Davidson diagonalization with overlap
     ethr =  1.12E-10,  avg # of iterations =  1.0

     total cpu time spent up to now is     6578.8 secs

     total energy              =    -938.24419386 Ry
     Harris-Foulkes estimate   =    -938.24419387 Ry
     estimated scf accuracy    <       0.00000009 Ry

     iteration # 25     ecut=    40.00 Ry     beta= 0.60
     Davidson diagonalization with overlap
     ethr =  9.48E-11,  avg # of iterations =  2.8

     total cpu time spent up to now is     6631.3 secs

     total energy              =    -938.24419386 Ry
     Harris-Foulkes estimate   =    -938.24419386 Ry
     estimated scf accuracy    <       0.00000002 Ry

     iteration # 26     ecut=    40.00 Ry     beta= 0.60
     Davidson diagonalization with overlap
     ethr =  1.95E-11,  avg # of iterations =  4.3

     total cpu time spent up to now is     6697.8 secs

     total energy              =    -938.24419386 Ry
     Harris-Foulkes estimate   =    -938.24419386 Ry
     estimated scf accuracy    <          2.7E-10 Ry

     iteration # 27     ecut=    40.00 Ry     beta= 0.60
     Davidson diagonalization with overlap
     ethr =  2.73E-13,  avg # of iterations =  5.2

     total cpu time spent up to now is     6775.7 secs

     total energy              =    -938.24419386 Ry
     Harris-Foulkes estimate   =    -938.24419386 Ry
     estimated scf accuracy    <          3.0E-10 Ry

     iteration # 28     ecut=    40.00 Ry     beta= 0.60
     Davidson diagonalization with overlap
     ethr =  2.73E-13,  avg # of iterations =  2.8

     total cpu time spent up to now is     6827.7 secs

     End of self-consistent calculation

     Number of k-points >= 100: set verbosity='high' to print the bands.

     the Fermi energy is    15.8909 ev

!    total energy              =    -938.24419386 Ry
     Harris-Foulkes estimate   =    -938.24419386 Ry
     estimated scf accuracy    <          5.0E-12 Ry

     The total energy is the sum of the following terms:

     one-electron contribution =    -231.20447269 Ry
     hartree contribution      =     157.92228329 Ry
     xc contribution           =    -131.84033075 Ry
     ewald contribution        =    -733.11517817 Ry
     smearing contrib. (-TS)   =      -0.00649554 Ry

     convergence has been achieved in  28 iterations

     Forces acting on atoms (cartesian axes, Ry/au):

     atom    1 type  2   force =    -0.00091093   -0.00038921    0.00721730
     atom    2 type  2   force =     0.00344010   -0.00031482    0.00000000
     atom    3 type  1   force =     0.00082034    0.00036017   -0.00847959
     atom    4 type  2   force =    -0.00395794    0.00103870    0.00000000
     atom    5 type  2   force =    -0.00091093   -0.00038921   -0.00721730
     atom    6 type  1   force =     0.00300408    0.00605901    0.00000000
     atom    7 type  1   force =     0.00082034    0.00036017    0.00847959
     atom    8 type  1   force =    -0.00230507   -0.00672483    0.00000000

     Total force =     0.019404     Total SCF correction =     0.000004


     Computing stress (Cartesian axis) and pressure

          total   stress  (Ry/bohr**3)                   (kbar)     P=   12.48
   0.00001175   0.00000621  -0.00000000          1.73      0.91     -0.00
   0.00000621   0.00001309  -0.00000000          0.91      1.93     -0.00
   0.00000000   0.00000000   0.00022960          0.00      0.00     33.77


     number of scf cycles    =   3
     number of bfgs steps    =   2

     enthalpy old            =    -938.2337609264 Ry
     enthalpy new            =    -938.2441938644 Ry

     CASE: enthalpy_new < enthalpy_old

     new trust radius        =       0.0294112427 bohr
     new conv_thr            =            1.0E-10 Ry

     new unit-cell volume =    962.44092 a.u.^3 (   142.61903 Ang^3 )
     density =      6.55620 g/cm^3

CELL_PARAMETERS (alat=  1.88972599)
  -1.455837603   2.523242251   4.847586092
  -1.455837603   2.523242251  -4.847586092
  -4.372445882  -2.526090356   0.000000000

ATOMIC_POSITIONS (angstrom)
Ti      -7.287307046   2.518699564   0.011784209
Ti      -2.910381110   3.362877109  -2.423793046
Nb      -4.367172451   2.523509843  -0.013068848
Ti      -4.376597435   0.841393464  -2.423793046
Ti      -5.831469443  -0.004542688  -0.011784209
Nb      -2.907631947   3.370426761   2.423793046
Nb      -2.911334848   0.000267592   0.013068848
Nb      -4.371223369   0.831365844   2.423793046


     NEW-OLD atomic charge density approx. for the potential

     Check: negative/imaginary core charge=   -0.000001    0.000000
     extrapolated charge  100.50277, renormalised to  100.00000

     total cpu time spent up to now is     6856.5 secs

     Self-consistent Calculation

     iteration #  1     ecut=    40.00 Ry     beta= 0.60
     Davidson diagonalization with overlap
     c_bands:  2 eigenvalues not converged
     c_bands:  2 eigenvalues not converged
     c_bands:  1 eigenvalues not converged
     c_bands:  1 eigenvalues not converged
     c_bands:  1 eigenvalues not converged
     c_bands:  1 eigenvalues not converged
     c_bands:  1 eigenvalues not converged
     c_bands:  2 eigenvalues not converged
     c_bands:  1 eigenvalues not converged
     ethr =  1.00E-06,  avg # of iterations =  6.8

     total cpu time spent up to now is     6976.5 secs

     total energy              =    -938.22936797 Ry
     Harris-Foulkes estimate   =    -937.41127511 Ry
     estimated scf accuracy    <       0.01371821 Ry

     iteration #  2     ecut=    40.00 Ry     beta= 0.60
     Davidson diagonalization with overlap
     c_bands:  2 eigenvalues not converged
     c_bands:  1 eigenvalues not converged
     c_bands:  1 eigenvalues not converged
     c_bands:  1 eigenvalues not converged
     ethr =  1.37E-05,  avg # of iterations =  6.4

     total cpu time spent up to now is     7085.9 secs

     total energy              =    -938.22251243 Ry
     Harris-Foulkes estimate   =    -938.27695645 Ry
     estimated scf accuracy    <       0.36386363 Ry

     iteration #  3     ecut=    40.00 Ry     beta= 0.60
     Davidson diagonalization with overlap
     ethr =  1.37E-05,  avg # of iterations =  5.2

     total cpu time spent up to now is     7177.9 secs

     total energy              =    -938.24391969 Ry
     Harris-Foulkes estimate   =    -938.24905352 Ry
     estimated scf accuracy    <       0.01614149 Ry

     iteration #  4     ecut=    40.00 Ry     beta= 0.60
     Davidson diagonalization with overlap
     c_bands:  1 eigenvalues not converged
     ethr =  1.37E-05,  avg # of iterations =  4.8

     total cpu time spent up to now is     7247.2 secs

     total energy              =    -938.24470220 Ry
     Harris-Foulkes estimate   =    -938.24791546 Ry
     estimated scf accuracy    <       0.02932205 Ry

     iteration #  5     ecut=    40.00 Ry     beta= 0.60
     Davidson diagonalization with overlap
     ethr =  1.37E-05,  avg # of iterations =  1.6

     total cpu time spent up to now is     7296.0 secs

     total energy              =    -938.24570314 Ry
     Harris-Foulkes estimate   =    -938.24592999 Ry
     estimated scf accuracy    <       0.00594682 Ry

     iteration #  6     ecut=    40.00 Ry     beta= 0.60
     Davidson diagonalization with overlap
     ethr =  5.95E-06,  avg # of iterations =  4.0

     total cpu time spent up to now is     7353.9 secs

     total energy              =    -938.24582852 Ry
     Harris-Foulkes estimate   =    -938.24601661 Ry
     estimated scf accuracy    <       0.00462433 Ry

     iteration #  7     ecut=    40.00 Ry     beta= 0.60
     Davidson diagonalization with overlap
     ethr =  4.62E-06,  avg # of iterations =  1.0

     total cpu time spent up to now is     7401.1 secs

     total energy              =    -938.24557092 Ry
     Harris-Foulkes estimate   =    -938.24588913 Ry
     estimated scf accuracy    <       0.00380512 Ry

     iteration #  8     ecut=    40.00 Ry     beta= 0.60
     Davidson diagonalization with overlap
     ethr =  3.81E-06,  avg # of iterations =  1.2

     total cpu time spent up to now is     7448.9 secs

     total energy              =    -938.24519402 Ry
     Harris-Foulkes estimate   =    -938.24562539 Ry
     estimated scf accuracy    <       0.00228392 Ry

     iteration #  9     ecut=    40.00 Ry     beta= 0.60
     Davidson diagonalization with overlap
     ethr =  2.28E-06,  avg # of iterations =  3.5

     total cpu time spent up to now is     7506.1 secs

     total energy              =    -938.24527725 Ry
     Harris-Foulkes estimate   =    -938.24534131 Ry
     estimated scf accuracy    <       0.00029260 Ry

     iteration # 10     ecut=    40.00 Ry     beta= 0.60
     Davidson diagonalization with overlap
     ethr =  2.93E-07,  avg # of iterations =  5.0

     total cpu time spent up to now is     7582.3 secs

     total energy              =    -938.24536702 Ry
     Harris-Foulkes estimate   =    -938.24536775 Ry
     estimated scf accuracy    <       0.00005147 Ry

     iteration # 11     ecut=    40.00 Ry     beta= 0.60
     Davidson diagonalization with overlap
     ethr =  5.15E-08,  avg # of iterations =  1.9

     total cpu time spent up to now is     7632.2 secs

     total energy              =    -938.24536480 Ry
     Harris-Foulkes estimate   =    -938.24536881 Ry
     estimated scf accuracy    <       0.00006031 Ry

     iteration # 12     ecut=    40.00 Ry     beta= 0.60
     Davidson diagonalization with overlap
     ethr =  5.15E-08,  avg # of iterations =  1.0

     total cpu time spent up to now is     7679.2 secs

     total energy              =    -938.24536179 Ry
     Harris-Foulkes estimate   =    -938.24536560 Ry
     estimated scf accuracy    <       0.00003106 Ry

     iteration # 13     ecut=    40.00 Ry     beta= 0.60
     Davidson diagonalization with overlap
     ethr =  3.11E-08,  avg # of iterations =  2.1

     total cpu time spent up to now is     7729.3 secs

     total energy              =    -938.24536277 Ry
     Harris-Foulkes estimate   =    -938.24536318 Ry
     estimated scf accuracy    <       0.00000461 Ry

     iteration # 14     ecut=    40.00 Ry     beta= 0.60
     Davidson diagonalization with overlap
     ethr =  4.61E-09,  avg # of iterations =  4.1

     total cpu time spent up to now is     7797.9 secs

     total energy              =    -938.24536354 Ry
     Harris-Foulkes estimate   =    -938.24536362 Ry
     estimated scf accuracy    <       0.00000055 Ry

     iteration # 15     ecut=    40.00 Ry     beta= 0.60
     Davidson diagonalization with overlap
     ethr =  5.46E-10,  avg # of iterations =  4.4

     total cpu time spent up to now is     7870.9 secs

     total energy              =    -938.24536356 Ry
     Harris-Foulkes estimate   =    -938.24536381 Ry
     estimated scf accuracy    <       0.00000260 Ry

     iteration # 16     ecut=    40.00 Ry     beta= 0.60
     Davidson diagonalization with overlap
     ethr =  5.46E-10,  avg # of iterations =  3.2

     total cpu time spent up to now is     7928.2 secs

     total energy              =    -938.24536349 Ry
     Harris-Foulkes estimate   =    -938.24536363 Ry
     estimated scf accuracy    <       0.00000092 Ry

     iteration # 17     ecut=    40.00 Ry     beta= 0.60
     Davidson diagonalization with overlap
     ethr =  5.46E-10,  avg # of iterations =  3.9

     total cpu time spent up to now is     7993.1 secs

     total energy              =    -938.24536357 Ry
     Harris-Foulkes estimate   =    -938.24536358 Ry
     estimated scf accuracy    <       0.00000004 Ry

     iteration # 18     ecut=    40.00 Ry     beta= 0.60
     Davidson diagonalization with overlap
     ethr =  3.79E-11,  avg # of iterations =  4.2

     total cpu time spent up to now is     8060.3 secs

     total energy              =    -938.24536358 Ry
     Harris-Foulkes estimate   =    -938.24536358 Ry
     estimated scf accuracy    <       0.00000003 Ry

     iteration # 19     ecut=    40.00 Ry     beta= 0.60
     Davidson diagonalization with overlap
     ethr =  2.50E-11,  avg # of iterations =  1.1

     total cpu time spent up to now is     8107.5 secs

     total energy              =    -938.24536358 Ry
     Harris-Foulkes estimate   =    -938.24536358 Ry
     estimated scf accuracy    <          3.3E-09 Ry

     iteration # 20     ecut=    40.00 Ry     beta= 0.60
     Davidson diagonalization with overlap
     ethr =  3.30E-12,  avg # of iterations =  4.3

     total cpu time spent up to now is     8176.3 secs

     total energy              =    -938.24536358 Ry
     Harris-Foulkes estimate   =    -938.24536358 Ry
     estimated scf accuracy    <          4.5E-10 Ry

     iteration # 21     ecut=    40.00 Ry     beta= 0.60
     Davidson diagonalization with overlap
     ethr =  4.47E-13,  avg # of iterations =  3.8

     total cpu time spent up to now is     8242.7 secs

     total energy              =    -938.24536358 Ry
     Harris-Foulkes estimate   =    -938.24536358 Ry
     estimated scf accuracy    <          3.2E-10 Ry

     iteration # 22     ecut=    40.00 Ry     beta= 0.60
     Davidson diagonalization with overlap
     ethr =  3.18E-13,  avg # of iterations =  2.6

     total cpu time spent up to now is     8296.9 secs

     End of self-consistent calculation

     Number of k-points >= 100: set verbosity='high' to print the bands.

     the Fermi energy is    15.7908 ev

!    total energy              =    -938.24536358 Ry
     Harris-Foulkes estimate   =    -938.24536358 Ry
     estimated scf accuracy    <          5.4E-11 Ry

     The total energy is the sum of the following terms:

     one-electron contribution =    -233.07408093 Ry
     hartree contribution      =     158.46514358 Ry
     xc contribution           =    -131.80083363 Ry
     ewald contribution        =    -731.82916289 Ry
     smearing contrib. (-TS)   =      -0.00642971 Ry

     convergence has been achieved in  22 iterations

     Forces acting on atoms (cartesian axes, Ry/au):

     atom    1 type  2   force =    -0.00077992   -0.00027562    0.00665514
     atom    2 type  2   force =     0.00296641    0.00011340    0.00000000
     atom    3 type  1   force =     0.00087665    0.00023940   -0.00778704
     atom    4 type  2   force =    -0.00284173    0.00070502    0.00000000
     atom    5 type  2   force =    -0.00077992   -0.00027562   -0.00665514
     atom    6 type  1   force =     0.00217710    0.00502947    0.00000000
     atom    7 type  1   force =     0.00087665    0.00023940    0.00778704
     atom    8 type  1   force =    -0.00249526   -0.00577546    0.00000000

     Total force =     0.017317     Total SCF correction =     0.000019


     Computing stress (Cartesian axis) and pressure

          total   stress  (Ry/bohr**3)                   (kbar)     P=    4.40
  -0.00003505   0.00000729   0.00000000         -5.16      1.07      0.00
   0.00000729  -0.00003335  -0.00000000          1.07     -4.91     -0.00
   0.00000000   0.00000000   0.00015807          0.00      0.00     23.25


     number of scf cycles    =   4
     number of bfgs steps    =   3

     enthalpy old            =    -938.2441938644 Ry
     enthalpy new            =    -938.2453635809 Ry

     CASE: enthalpy_new < enthalpy_old

     new trust radius        =       0.0440236276 bohr
     new conv_thr            =            1.0E-10 Ry

     new unit-cell volume =    965.09124 a.u.^3 (   143.01177 Ang^3 )
     density =      6.53819 g/cm^3

CELL_PARAMETERS (alat=  1.88972599)
  -1.451808859   2.517411478   4.881981014
  -1.451808859   2.517411478  -4.881981014
[...]
Nb      -3.697800716   2.178302580   0.094108330
Ti      -4.495474775   0.878537578  -2.297339736
Ti      -5.334829928  -0.641363765  -0.000089143
Nb      -2.809434026   3.523660118   2.297339736
Nb      -2.499032499  -0.420443417  -0.094108330
Nb      -4.584610541   0.832438614   2.297339736


     NEW-OLD atomic charge density approx. for the potential
     extrapolated charge   99.99655, renormalised to  100.00000

     total cpu time spent up to now is    66594.4 secs

     Self-consistent Calculation

     iteration #  1     ecut=    40.00 Ry     beta= 0.60
     Davidson diagonalization with overlap
     ethr =  1.00E-06,  avg # of iterations =  3.0

     Threshold (ethr) on eigenvalues was too large:
     Diagonalizing with lowered threshold

     Davidson diagonalization with overlap
     ethr =  5.21E-09,  avg # of iterations =  3.0

     total cpu time spent up to now is    66733.3 secs

     total energy              =    -938.32399720 Ry
     Harris-Foulkes estimate   =    -938.32966731 Ry
     estimated scf accuracy    <       0.00000579 Ry

     iteration #  2     ecut=    40.00 Ry     beta= 0.60
     Davidson diagonalization with overlap
     ethr =  5.79E-09,  avg # of iterations =  4.9

     total cpu time spent up to now is    66821.0 secs

     total energy              =    -938.32398749 Ry
     Harris-Foulkes estimate   =    -938.32401239 Ry
     estimated scf accuracy    <       0.00016291 Ry

     iteration #  3     ecut=    40.00 Ry     beta= 0.60
     Davidson diagonalization with overlap
     ethr =  5.79E-09,  avg # of iterations =  5.0

     total cpu time spent up to now is    66902.3 secs

     total energy              =    -938.32399979 Ry
     Harris-Foulkes estimate   =    -938.32400205 Ry
     estimated scf accuracy    <       0.00001298 Ry

     iteration #  4     ecut=    40.00 Ry     beta= 0.60
     Davidson diagonalization with overlap
     ethr =  5.79E-09,  avg # of iterations =  4.0

     total cpu time spent up to now is    66967.4 secs

     total energy              =    -938.32400041 Ry
     Harris-Foulkes estimate   =    -938.32400154 Ry
     estimated scf accuracy    <       0.00000784 Ry

     iteration #  5     ecut=    40.00 Ry     beta= 0.60
     Davidson diagonalization with overlap
     ethr =  5.79E-09,  avg # of iterations =  1.1

     total cpu time spent up to now is    67015.1 secs

     total energy              =    -938.32400075 Ry
     Harris-Foulkes estimate   =    -938.32400083 Ry
     estimated scf accuracy    <       0.00000071 Ry

     iteration #  6     ecut=    40.00 Ry     beta= 0.60
     Davidson diagonalization with overlap
     ethr =  7.12E-10,  avg # of iterations =  4.0

     total cpu time spent up to now is    67086.4 secs

     total energy              =    -938.32400091 Ry
     Harris-Foulkes estimate   =    -938.32400095 Ry
     estimated scf accuracy    <       0.00000017 Ry

     iteration #  7     ecut=    40.00 Ry     beta= 0.60
     Davidson diagonalization with overlap
     ethr =  1.75E-10,  avg # of iterations =  3.9

     total cpu time spent up to now is    67152.7 secs

     total energy              =    -938.32400092 Ry
     Harris-Foulkes estimate   =    -938.32400095 Ry
     estimated scf accuracy    <       0.00000029 Ry

     iteration #  8     ecut=    40.00 Ry     beta= 0.60
     Davidson diagonalization with overlap
     ethr =  1.75E-10,  avg # of iterations =  2.4

     total cpu time spent up to now is    67204.4 secs

     total energy              =    -938.32400092 Ry
     Harris-Foulkes estimate   =    -938.32400094 Ry
     estimated scf accuracy    <       0.00000016 Ry

     iteration #  9     ecut=    40.00 Ry     beta= 0.60
     Davidson diagonalization with overlap
     ethr =  1.60E-10,  avg # of iterations =  1.8

     total cpu time spent up to now is    67254.1 secs

     total energy              =    -938.32400093 Ry
     Harris-Foulkes estimate   =    -938.32400093 Ry
     estimated scf accuracy    <       0.00000003 Ry

     iteration # 10     ecut=    40.00 Ry     beta= 0.60
     Davidson diagonalization with overlap
     ethr =  3.05E-11,  avg # of iterations =  4.0

     total cpu time spent up to now is    67320.0 secs

     total energy              =    -938.32400093 Ry
     Harris-Foulkes estimate   =    -938.32400093 Ry
     estimated scf accuracy    <          2.0E-09 Ry

     iteration # 11     ecut=    40.00 Ry     beta= 0.60
     Davidson diagonalization with overlap
     ethr =  1.99E-12,  avg # of iterations =  3.5

     total cpu time spent up to now is    67385.2 secs

     total energy              =    -938.32400093 Ry
     Harris-Foulkes estimate   =    -938.32400093 Ry
     estimated scf accuracy    <          1.6E-09 Ry

     iteration # 12     ecut=    40.00 Ry     beta= 0.60
     Davidson diagonalization with overlap
     ethr =  1.58E-12,  avg # of iterations =  2.8

     total cpu time spent up to now is    67441.3 secs

     total energy              =    -938.32400093 Ry
     Harris-Foulkes estimate   =    -938.32400093 Ry
     estimated scf accuracy    <          1.2E-10 Ry

     iteration # 13     ecut=    40.00 Ry     beta= 0.60
     Davidson diagonalization with overlap
     ethr =  1.19E-13,  avg # of iterations =  4.0

     total cpu time spent up to now is    67510.3 secs

     total energy              =    -938.32400093 Ry
     Harris-Foulkes estimate   =    -938.32400093 Ry
     estimated scf accuracy    <          7.6E-11 Ry

     iteration # 14     ecut=    40.00 Ry     beta= 0.60
     Davidson diagonalization with overlap
     ethr =  1.00E-13,  avg # of iterations =  1.0

     total cpu time spent up to now is    67557.8 secs

     End of self-consistent calculation

     Number of k-points >= 100: set verbosity='high' to print the bands.

     the Fermi energy is    15.7447 ev

!    total energy              =    -938.32400093 Ry
     Harris-Foulkes estimate   =    -938.32400093 Ry
     estimated scf accuracy    <          1.8E-11 Ry

     The total energy is the sum of the following terms:

     one-electron contribution =    -228.71421004 Ry
     hartree contribution      =     157.44767956 Ry
     xc contribution           =    -131.97047029 Ry
     ewald contribution        =    -735.08803589 Ry
     smearing contrib. (-TS)   =       0.00103573 Ry

     convergence has been achieved in  14 iterations

     Forces acting on atoms (cartesian axes, Ry/au):

     atom    1 type  2   force =     0.00009279   -0.00008925    0.00000940
     atom    2 type  2   force =    -0.00010670    0.00010390    0.00000000
     atom    3 type  1   force =    -0.00003050   -0.00000975   -0.00006802
     atom    4 type  2   force =     0.00006451   -0.00001495   -0.00000000
     atom    5 type  2   force =     0.00009279   -0.00008925   -0.00000940
     atom    6 type  1   force =    -0.00000338    0.00011732   -0.00000000
     atom    7 type  1   force =    -0.00003050   -0.00000975    0.00006802
     atom    8 type  1   force =    -0.00007902   -0.00000828    0.00000000

     Total force =     0.000302     Total SCF correction =     0.000010


     Computing stress (Cartesian axis) and pressure

          total   stress  (Ry/bohr**3)                   (kbar)     P=    0.29
   0.00000257  -0.00000060  -0.00000000          0.38     -0.09     -0.00
  -0.00000060   0.00000149   0.00000000         -0.09      0.22      0.00
  -0.00000000   0.00000000   0.00000188         -0.00      0.00      0.28


     number of scf cycles    =  49
     number of bfgs steps    =  48

     enthalpy old            =    -938.3240001304 Ry
     enthalpy new            =    -938.3240009308 Ry

     CASE: enthalpy_new < enthalpy_old

     new trust radius        =       0.0012428346 bohr
     new conv_thr            =            1.2E-11 Ry

     new unit-cell volume =    946.85953 a.u.^3 (   140.31010 Ang^3 )
     density =      6.66409 g/cm^3

CELL_PARAMETERS (alat=  1.88972599)
  -1.198953693   2.598754088   4.594699901
  -1.198953693   2.598754088  -4.594699901
  -4.471491559  -3.042976004   0.000000000

ATOMIC_POSITIONS (angstrom)
Ti      -6.533758394   1.957105985   0.000262892
Ti      -2.899548596   3.477828283  -2.297349950
Nb      -3.698277751   2.178588701   0.094060188
Ti      -4.495718097   0.878726878  -2.297349950
Ti      -5.334804701  -0.641648103  -0.000262892
Nb      -2.809966085   3.523939395   2.297349950
Nb      -2.499324058  -0.420165388  -0.094060188
Nb      -4.585094477   0.832607279   2.297349950


     NEW-OLD atomic charge density approx. for the potential
     extrapolated charge  100.00780, renormalised to  100.00000

     total cpu time spent up to now is    67586.8 secs

     Self-consistent Calculation

     iteration #  1     ecut=    40.00 Ry     beta= 0.60
     Davidson diagonalization with overlap
     ethr =  1.00E-06,  avg # of iterations =  3.0

     Threshold (ethr) on eigenvalues was too large:
     Diagonalizing with lowered threshold

     Davidson diagonalization with overlap
     ethr =  8.29E-09,  avg # of iterations =  2.8

     total cpu time spent up to now is    67721.6 secs

     total energy              =    -938.32399345 Ry
     Harris-Foulkes estimate   =    -938.31120043 Ry
     estimated scf accuracy    <       0.00000924 Ry

     iteration #  2     ecut=    40.00 Ry     beta= 0.60
     Davidson diagonalization with overlap
     ethr =  9.24E-09,  avg # of iterations =  5.0

     total cpu time spent up to now is    67817.3 secs

     total energy              =    -938.32397720 Ry
     Harris-Foulkes estimate   =    -938.32402939 Ry
     estimated scf accuracy    <       0.00038927 Ry

     iteration #  3     ecut=    40.00 Ry     beta= 0.60
     Davidson diagonalization with overlap
     ethr =  9.24E-09,  avg # of iterations =  5.0

     total cpu time spent up to now is    67899.5 secs

     total energy              =    -938.32400043 Ry
     Harris-Foulkes estimate   =    -938.32400261 Ry
     estimated scf accuracy    <       0.00000782 Ry

     iteration #  4     ecut=    40.00 Ry     beta= 0.60
     Davidson diagonalization with overlap
     ethr =  7.82E-09,  avg # of iterations =  3.9

     total cpu time spent up to now is    67960.4 secs

     total energy              =    -938.32400078 Ry
     Harris-Foulkes estimate   =    -938.32400238 Ry
     estimated scf accuracy    <       0.00001056 Ry

     iteration #  5     ecut=    40.00 Ry     beta= 0.60
     Davidson diagonalization with overlap
     ethr =  7.82E-09,  avg # of iterations =  1.2

     total cpu time spent up to now is    68008.2 secs

     total energy              =    -938.32400133 Ry
     Harris-Foulkes estimate   =    -938.32400146 Ry
     estimated scf accuracy    <       0.00000074 Ry

     iteration #  6     ecut=    40.00 Ry     beta= 0.60
     Davidson diagonalization with overlap
     ethr =  7.39E-10,  avg # of iterations =  4.2

     total cpu time spent up to now is    68079.4 secs

     total energy              =    -938.32400142 Ry
     Harris-Foulkes estimate   =    -938.32400156 Ry
     estimated scf accuracy    <       0.00000101 Ry

     iteration #  7     ecut=    40.00 Ry     beta= 0.60
     Davidson diagonalization with overlap
     ethr =  7.39E-10,  avg # of iterations =  2.3

     total cpu time spent up to now is    68130.6 secs

     total energy              =    -938.32400142 Ry
     Harris-Foulkes estimate   =    -938.32400149 Ry
     estimated scf accuracy    <       0.00000061 Ry

     iteration #  8     ecut=    40.00 Ry     beta= 0.60
     Davidson diagonalization with overlap
     ethr =  6.13E-10,  avg # of iterations =  2.0

     total cpu time spent up to now is    68182.1 secs

     total energy              =    -938.32400143 Ry
     Harris-Foulkes estimate   =    -938.32400147 Ry
     estimated scf accuracy    <       0.00000028 Ry

     iteration #  9     ecut=    40.00 Ry     beta= 0.60
     Davidson diagonalization with overlap
     ethr =  2.85E-10,  avg # of iterations =  2.7

     total cpu time spent up to now is    68235.2 secs

     total energy              =    -938.32400144 Ry
     Harris-Foulkes estimate   =    -938.32400145 Ry
     estimated scf accuracy    <       0.00000006 Ry

     iteration # 10     ecut=    40.00 Ry     beta= 0.60
     Davidson diagonalization with overlap
     ethr =  5.96E-11,  avg # of iterations =  4.0

     total cpu time spent up to now is    68302.6 secs

     total energy              =    -938.32400145 Ry
     Harris-Foulkes estimate   =    -938.32400145 Ry
     estimated scf accuracy    <          5.4E-09 Ry

     iteration # 11     ecut=    40.00 Ry     beta= 0.60
     Davidson diagonalization with overlap
     ethr =  5.38E-12,  avg # of iterations =  3.7

     total cpu time spent up to now is    68364.2 secs

     total energy              =    -938.32400145 Ry
     Harris-Foulkes estimate   =    -938.32400145 Ry
     estimated scf accuracy    <          1.5E-09 Ry

     iteration # 12     ecut=    40.00 Ry     beta= 0.60
     Davidson diagonalization with overlap
     ethr =  1.47E-12,  avg # of iterations =  3.3

     total cpu time spent up to now is    68427.4 secs

     total energy              =    -938.32400145 Ry
     Harris-Foulkes estimate   =    -938.32400145 Ry
     estimated scf accuracy    <          9.0E-10 Ry

     iteration # 13     ecut=    40.00 Ry     beta= 0.60
     Davidson diagonalization with overlap
     ethr =  9.01E-13,  avg # of iterations =  2.2

     total cpu time spent up to now is    68482.1 secs

     total energy              =    -938.32400145 Ry
     Harris-Foulkes estimate   =    -938.32400145 Ry
     estimated scf accuracy    <          9.0E-11 Ry

     iteration # 14     ecut=    40.00 Ry     beta= 0.60
     Davidson diagonalization with overlap
     ethr =  1.00E-13,  avg # of iterations =  3.4

     total cpu time spent up to now is    68545.1 secs

     total energy              =    -938.32400145 Ry
     Harris-Foulkes estimate   =    -938.32400145 Ry
     estimated scf accuracy    <          4.7E-11 Ry

     iteration # 15     ecut=    40.00 Ry     beta= 0.60
     Davidson diagonalization with overlap
     ethr =  1.00E-13,  avg # of iterations =  1.0

     total cpu time spent up to now is    68592.6 secs

     End of self-consistent calculation

     Number of k-points >= 100: set verbosity='high' to print the bands.

     the Fermi energy is    15.7432 ev

!    total energy              =    -938.32400145 Ry
     Harris-Foulkes estimate   =    -938.32400145 Ry
     estimated scf accuracy    <          7.9E-12 Ry

     The total energy is the sum of the following terms:

     one-electron contribution =    -228.74752196 Ry
     hartree contribution      =     157.45824069 Ry
     xc contribution           =    -131.96989910 Ry
     ewald contribution        =    -735.06585799 Ry
     smearing contrib. (-TS)   =       0.00103691 Ry

     convergence has been achieved in  15 iterations

     Forces acting on atoms (cartesian axes, Ry/au):

     atom    1 type  2   force =     0.00002002   -0.00006220   -0.00003636
     atom    2 type  2   force =     0.00001139    0.00012800   -0.00000000
     atom    3 type  1   force =     0.00002863   -0.00001980   -0.00004523
     atom    4 type  2   force =    -0.00001532   -0.00003907    0.00000000
     atom    5 type  2   force =     0.00002002   -0.00006220    0.00003636
     atom    6 type  1   force =     0.00002654    0.00010604   -0.00000000
     atom    7 type  1   force =     0.00002863   -0.00001980    0.00004523
     atom    8 type  1   force =    -0.00011990   -0.00003096    0.00000000

     Total force =     0.000252     Total SCF correction =     0.000005


     Computing stress (Cartesian axis) and pressure

          total   stress  (Ry/bohr**3)                   (kbar)     P=    0.19
   0.00000143  -0.00000045  -0.00000000          0.21     -0.07     -0.00
  -0.00000045   0.00000111   0.00000000         -0.07      0.16      0.00
  -0.00000000   0.00000000   0.00000141         -0.00      0.00      0.21


     number of scf cycles    =  50
     number of bfgs steps    =  49

     enthalpy old            =    -938.3240009308 Ry
     enthalpy new            =    -938.3240014527 Ry

     CASE: enthalpy_new < enthalpy_old

     new trust radius        =       0.0007561567 bohr
     new conv_thr            =            1.3E-11 Ry

     new unit-cell volume =    946.95517 a.u.^3 (   140.32428 Ang^3 )
     density =      6.66341 g/cm^3

CELL_PARAMETERS (alat=  1.88972599)
  -1.199067280   2.598819427   4.594838290
  -1.199067280   2.598819427  -4.594838290
  -4.471678383  -3.042941774   0.000000000

ATOMIC_POSITIONS (angstrom)
Ti      -6.533852291   1.957004542   0.000335682
Ti      -2.900058120   3.478056687  -2.297419145
Nb      -3.698509616   2.178725023   0.094012630
Ti      -4.495983121   0.878910881  -2.297419145
Ti      -5.334785011  -0.641814885  -0.000335682
Nb      -2.810278306   3.524228206   2.297419145
Nb      -2.499442336  -0.420094405  -0.094012630
Nb      -4.585591068   0.832780113   2.297419145


     NEW-OLD atomic charge density approx. for the potential
     extrapolated charge  100.00969, renormalised to  100.00000
 
     init_run     :     28.15s CPU     28.81s WALL (       1 calls)
     electrons    :  66191.70s CPU  67148.99s WALL (      50 calls)
     update_pot   :     90.70s CPU     90.98s WALL (      50 calls)
     forces       :    334.53s CPU    342.31s WALL (      50 calls)
     stress       :    969.09s CPU    989.04s WALL (      50 calls)

     Called by init_run:
     wfcinit      :     26.42s CPU     26.91s WALL (       1 calls)
     potinit      :      0.54s CPU      0.55s WALL (       1 calls)
     hinit0       :      0.95s CPU      0.98s WALL (       1 calls)

     Called by electrons:
     c_bands      :  57746.91s CPU  58378.84s WALL (     994 calls)
     sum_band     :   8125.10s CPU   8336.80s WALL (     994 calls)
     v_of_rho     :     43.98s CPU     44.21s WALL (    1038 calls)
     newd         :    282.42s CPU    401.37s WALL (    1038 calls)
     mix_rho      :      5.95s CPU      6.02s WALL (     994 calls)

     Called by c_bands:
     init_us_2    :    572.44s CPU    573.64s WALL (  639234 calls)
     cegterg      :  53481.69s CPU  54089.37s WALL (  304164 calls)

     Called by sum_band:
     sum_band:bec :     21.17s CPU     21.18s WALL (  304164 calls)
     addusdens    :    316.40s CPU    421.96s WALL (     994 calls)

     Called by *egterg:
     h_psi        :  33848.55s CPU  34376.60s WALL ( 1382202 calls)
     s_psi        :   1970.36s CPU   1977.23s WALL ( 1382202 calls)
     g_psi        :    277.25s CPU    278.27s WALL ( 1077732 calls)
     cdiaghg      :  10142.79s CPU  10173.38s WALL ( 1364760 calls)

     Called by h_psi:
     h_psi:pot    :  33718.96s CPU  34244.52s WALL ( 1382202 calls)
     h_psi:calbec :   2291.76s CPU   2307.99s WALL ( 1382202 calls)
     vloc_psi     :  29445.83s CPU  29944.76s WALL ( 1382202 calls)
     add_vuspsi   :   1975.66s CPU   1984.20s WALL ( 1382202 calls)

     General routines
     calbec       :   3327.16s CPU   3350.62s WALL ( 1762866 calls)
     fft          :     29.32s CPU     29.63s WALL (   14752 calls)
     ffts         :      1.15s CPU      1.19s WALL (    2032 calls)
     fftw         :  32246.82s CPU  32727.11s WALL (******** calls)
     interpolate  :      2.70s CPU      2.74s WALL (    1038 calls)
     davcio       :      0.00s CPU      0.17s WALL (     306 calls)
 
     Parallel routines
     fft_scatt_xy :   5744.23s CPU   5957.36s WALL (******** calls)
     fft_scatt_yz :   6125.89s CPU   6343.65s WALL (******** calls)
 
     PWSCF        :    18h47m CPU       47h19m WALL

       3h
 
   This run was terminated on:  11:36:43  29Mar2020            

=------------------------------------------------------------------------------=
   JOB DONE.
=------------------------------------------------------------------------------=
