
     Program PWSCF v.6.0 (svn rev. 13079) starts on 27Apr2018 at 15: 6:46 

     This program is part of the open-source Quantum ESPRESSO suite
     for quantum simulation of materials; please cite
         "P. Giannozzi et al., J. Phys.:Condens. Matter 21 395502 (2009);
          URL http://www.quantum-espresso.org", 
     in publications or presentations arising from this work. More details at
     http://www.quantum-espresso.org/quote

     Parallel version (MPI), running on     4 processors
     R & G space division:  proc/nbgrp/npool/nimage =       4
     Waiting for input...
     Reading input from standard input

     Current dimensions of program PWSCF are:
     Max number of different atomic species (ntypx) = 10
     Max number of k-points (npk) =  40000
     Max angular momentum in pseudopotentials (lmaxx) =  3

     Subspace diagonalization in iterative solution of the eigenvalue problem:
     a serial algorithm will be used


     Parallelization info
     --------------------
     sticks:   dense  smooth     PW     G-vecs:    dense   smooth      PW
     Min         762     303     90                27736     6984    1142
     Max         763     304     91                27738     6987    1145
     Sum        3049    1213    361               110947    27941    4573



     bravais-lattice index     =            0
     lattice parameter (alat)  =       1.8897  a.u.
     unit-cell volume          =     586.6735 (a.u.)^3
     number of atoms/cell      =            4
     number of atomic types    =            2
     number of electrons       =        50.00
     number of Kohn-Sham states=           30
     kinetic-energy cutoff     =      50.0000  Ry
     charge density cutoff     =     500.0000  Ry
     convergence threshold     =      1.0E-10
     mixing beta               =       0.6000
     number of iterations used =            8  plain     mixing
     Exchange-correlation      = SLA  PW   PBE  PBE ( 1  4  3  4 0 0)
     nstep                     =           50


     celldm(1)=   1.889726  celldm(2)=   0.000000  celldm(3)=   0.000000
     celldm(4)=   0.000000  celldm(5)=   0.000000  celldm(6)=   0.000000

     crystal axes: (cart. coord. in units of alat)
               a(1) = (   0.000000   3.516063   3.516063 )  
               a(2) = (   3.516063   0.000000   3.516063 )  
               a(3) = (   3.516063   3.516063   0.000000 )  

     reciprocal axes: (cart. coord. in units 2 pi/alat)
               b(1) = ( -0.142205  0.142205  0.142205 )  
               b(2) = (  0.142205 -0.142205  0.142205 )  
               b(3) = (  0.142205  0.142205 -0.142205 )  


     PseudoPot. # 1 for Nb read from file:
     ./Nb.pbe-nsp-van.UPF
     MD5 check sum: 0a22fc7fb0ba19a08ca5db297a5d2854
     Pseudo is Ultrasoft + core correction, Zval = 13.0
     Generated by new atomic code, or converted to UPF format
     Using radial grid of  887 points,  6 beta functions with: 
                l(1) =   0
                l(2) =   0
                l(3) =   1
                l(4) =   1
                l(5) =   2
                l(6) =   2
     Q(r) pseudized with  6 coefficients,  rinner =    1.000   1.000   1.000
                                                       1.000   1.000

     PseudoPot. # 2 for Ti read from file:
     ./Ti.pbe-sp-van_ak.UPF
     MD5 check sum: f98fea3e8887528921fefa5636a534ca
     Pseudo is Ultrasoft, Zval = 12.0
     Generated by new atomic code, or converted to UPF format
     Using radial grid of  851 points,  6 beta functions with: 
                l(1) =   0
                l(2) =   0
                l(3) =   1
                l(4) =   1
                l(5) =   2
                l(6) =   2
     Q(r) pseudized with  8 coefficients,  rinner =    1.000   1.000   1.000
                                                       1.000   1.000

     atomic species   valence    mass     pseudopotential
        Nb            13.00    92.90638     Nb( 1.00)
        Ti            12.00    47.86700     Ti( 1.00)

     48 Sym. Ops., with inversion, found (24 have fractional translation)



   Cartesian axes

     site n.     atom                  positions (alat units)
         1           Ti  tau(   1) = (   1.7580316   1.7580316   1.7580316  )
         2           Ti  tau(   2) = (   3.5160633   3.5160633   3.5160633  )
         3           Nb  tau(   3) = (   5.2740949   5.2740949   5.2740949  )
         4           Nb  tau(   4) = (   7.0321265   7.0321265   7.0321265  )

     number of k points=    84  Marzari-Vanderbilt smearing, width (Ry)=  0.0200
                       cart. coord. in units 2pi/alat
        k(    1) = (   0.0000000   0.0000000   0.0000000), wk =   0.0009103
        k(    2) = (   0.0109388   0.0109388  -0.0109388), wk =   0.0072827
        k(    3) = (   0.0218776   0.0218776  -0.0218776), wk =   0.0072827
        k(    4) = (   0.0328164   0.0328164  -0.0328164), wk =   0.0072827
        k(    5) = (   0.0437552   0.0437552  -0.0437552), wk =   0.0072827
        k(    6) = (   0.0546940   0.0546940  -0.0546940), wk =   0.0072827
        k(    7) = (   0.0656328   0.0656328  -0.0656328), wk =   0.0072827
        k(    8) = (   0.0218776   0.0000000   0.0000000), wk =   0.0054620
        k(    9) = (   0.0328164   0.0109388  -0.0109388), wk =   0.0218480
        k(   10) = (   0.0437552   0.0218776  -0.0218776), wk =   0.0218480
        k(   11) = (   0.0546940   0.0328164  -0.0328164), wk =   0.0218480
        k(   12) = (   0.0656328   0.0437552  -0.0437552), wk =   0.0218480
        k(   13) = (   0.0765717   0.0546940  -0.0546940), wk =   0.0218480
        k(   14) = (  -0.0546940  -0.0765717   0.0765717), wk =   0.0218480
        k(   15) = (  -0.0437552  -0.0656328   0.0656328), wk =   0.0218480
        k(   16) = (  -0.0328164  -0.0546940   0.0546940), wk =   0.0218480
        k(   17) = (  -0.0218776  -0.0437552   0.0437552), wk =   0.0218480
        k(   18) = (  -0.0109388  -0.0328164   0.0328164), wk =   0.0218480
        k(   19) = (   0.0000000  -0.0218776   0.0218776), wk =   0.0109240
        k(   20) = (   0.0437552   0.0000000   0.0000000), wk =   0.0054620
        k(   21) = (   0.0546940   0.0109388  -0.0109388), wk =   0.0218480
        k(   22) = (   0.0656328   0.0218776  -0.0218776), wk =   0.0218480
        k(   23) = (   0.0765717   0.0328164  -0.0328164), wk =   0.0218480
        k(   24) = (   0.0875105   0.0437552  -0.0437552), wk =   0.0218480
        k(   25) = (  -0.0437552  -0.0875105   0.0875105), wk =   0.0218480
        k(   26) = (  -0.0328164  -0.0765717   0.0765717), wk =   0.0218480
        k(   27) = (  -0.0218776  -0.0656328   0.0656328), wk =   0.0218480
        k(   28) = (  -0.0109388  -0.0546940   0.0546940), wk =   0.0218480
        k(   29) = (   0.0000000  -0.0437552   0.0437552), wk =   0.0109240
        k(   30) = (   0.0656328   0.0000000   0.0000000), wk =   0.0054620
        k(   31) = (   0.0765717   0.0109388  -0.0109388), wk =   0.0218480
        k(   32) = (   0.0875105   0.0218776  -0.0218776), wk =   0.0218480
        k(   33) = (   0.0984493   0.0328164  -0.0328164), wk =   0.0218480
        k(   34) = (  -0.0328164  -0.0984493   0.0984493), wk =   0.0218480
        k(   35) = (  -0.0218776  -0.0875105   0.0875105), wk =   0.0218480
        k(   36) = (  -0.0109388  -0.0765717   0.0765717), wk =   0.0218480
        k(   37) = (   0.0000000  -0.0656328   0.0656328), wk =   0.0109240
        k(   38) = (   0.0875105   0.0000000   0.0000000), wk =   0.0054620
        k(   39) = (   0.0984493   0.0109388  -0.0109388), wk =   0.0218480
        k(   40) = (   0.1093881   0.0218776  -0.0218776), wk =   0.0218480
        k(   41) = (  -0.0218776  -0.1093881   0.1093881), wk =   0.0218480
        k(   42) = (  -0.0109388  -0.0984493   0.0984493), wk =   0.0218480
        k(   43) = (   0.0000000  -0.0875105   0.0875105), wk =   0.0109240
        k(   44) = (   0.1093881   0.0000000   0.0000000), wk =   0.0054620
        k(   45) = (   0.1203269   0.0109388  -0.0109388), wk =   0.0218480
        k(   46) = (  -0.0109388  -0.1203269   0.1203269), wk =   0.0218480
        k(   47) = (   0.0000000  -0.1093881   0.1093881), wk =   0.0109240
        k(   48) = (   0.1312657   0.0000000   0.0000000), wk =   0.0054620
        k(   49) = (   0.0000000  -0.1312657   0.1312657), wk =   0.0109240
        k(   50) = (   0.0437552   0.0218776   0.0000000), wk =   0.0218480
        k(   51) = (   0.0546940   0.0328164  -0.0109388), wk =   0.0436959
        k(   52) = (   0.0656328   0.0437552  -0.0218776), wk =   0.0436959
        k(   53) = (   0.0765717   0.0546940  -0.0328164), wk =   0.0436959
        k(   54) = (  -0.0546940  -0.0765717   0.0984493), wk =   0.0436959
        k(   55) = (   0.0656328   0.0218776   0.0000000), wk =   0.0218480
        k(   56) = (   0.0765717   0.0328164  -0.0109388), wk =   0.0436959
        k(   57) = (   0.0875105   0.0437552  -0.0218776), wk =   0.0436959
        k(   58) = (  -0.0437552  -0.0875105   0.1093881), wk =   0.0436959
        k(   59) = (  -0.0328164  -0.0765717   0.0984493), wk =   0.0436959
        k(   60) = (  -0.0218776  -0.0656328   0.0875105), wk =   0.0436959
        k(   61) = (  -0.0109388  -0.0546940   0.0765717), wk =   0.0436959
        k(   62) = (   0.0000000  -0.0437552   0.0656328), wk =   0.0218480
        k(   63) = (   0.0875105   0.0218776  -0.0000000), wk =   0.0218480
        k(   64) = (   0.0984493   0.0328164  -0.0109388), wk =   0.0436959
        k(   65) = (  -0.0328164  -0.0984493   0.1203269), wk =   0.0436959
        k(   66) = (  -0.0218776  -0.0875105   0.1093881), wk =   0.0436959
        k(   67) = (  -0.0109388  -0.0765717   0.0984493), wk =   0.0436959
        k(   68) = (   0.0000000  -0.0656328   0.0875105), wk =   0.0218480
        k(   69) = (   0.1093881   0.0218776   0.0000000), wk =   0.0218480
        k(   70) = (  -0.0218776  -0.1093881   0.1312657), wk =   0.0436959
        k(   71) = (  -0.0109388  -0.0984493   0.1203269), wk =   0.0436959
        k(   72) = (   0.0000000  -0.0875105   0.1093881), wk =   0.0218480
        k(   73) = (  -0.0109388  -0.1203269   0.1422045), wk =   0.0218480
        k(   74) = (   0.0000000  -0.1093881   0.1312657), wk =   0.0218480
        k(   75) = (   0.0875105   0.0437552   0.0000000), wk =   0.0218480
        k(   76) = (  -0.0437552  -0.0875105   0.1312657), wk =   0.0436959
        k(   77) = (  -0.0328164  -0.0765717   0.1203269), wk =   0.0436959
        k(   78) = (  -0.0328164  -0.0984493   0.1422045), wk =   0.0218480
        k(   79) = (  -0.0218776  -0.0875105   0.1312657), wk =   0.0436959
        k(   80) = (  -0.0109388  -0.0765717   0.1203269), wk =   0.0436959
        k(   81) = (   0.0000000  -0.0656328   0.1093881), wk =   0.0218480
        k(   82) = (  -0.0109388  -0.0984493   0.1422045), wk =   0.0218480
        k(   83) = (   0.0000000  -0.0875105   0.1312657), wk =   0.0218480
        k(   84) = (  -0.0109388  -0.0765717   0.1422045), wk =   0.0218480

     Dense  grid:   110947 G-vectors     FFT dimensions: (  72,  72,  72)

     Smooth grid:    27941 G-vectors     FFT dimensions: (  45,  45,  45)

     Estimated max dynamical RAM per process >      56.47Mb

     Estimated total allocated dynamical RAM >     225.86Mb

     Initial potential from superposition of free atoms

     starting charge   47.99445, renormalised to   50.00000
     Starting wfc are   46 randomized atomic wfcs

     total cpu time spent up to now is       10.3 secs

     per-process dynamical memory:   118.3 Mb

     Self-consistent Calculation

     iteration #  1     ecut=    50.00 Ry     beta=0.60
     Davidson diagonalization with overlap
     ethr =  1.00E-02,  avg # of iterations =  3.0

     total cpu time spent up to now is       28.5 secs

     total energy              =    -461.93230792 Ry
     Harris-Foulkes estimate   =    -470.69849823 Ry
     estimated scf accuracy    <      11.17860545 Ry

     iteration #  2     ecut=    50.00 Ry     beta=0.60
     Davidson diagonalization with overlap
     ethr =  1.00E-02,  avg # of iterations =  5.8

     total cpu time spent up to now is       58.1 secs

     total energy              =    -467.28889133 Ry
     Harris-Foulkes estimate   =    -480.93873252 Ry
     estimated scf accuracy    <      38.82568513 Ry

     iteration #  3     ecut=    50.00 Ry     beta=0.60
     Davidson diagonalization with overlap
     ethr =  1.00E-02,  avg # of iterations =  3.2

     total cpu time spent up to now is       78.0 secs

     total energy              =    -469.81298510 Ry
     Harris-Foulkes estimate   =    -470.21462764 Ry
     estimated scf accuracy    <       6.16164094 Ry

     iteration #  4     ecut=    50.00 Ry     beta=0.60
     Davidson diagonalization with overlap
     ethr =  1.00E-02,  avg # of iterations =  1.0

     total cpu time spent up to now is       91.8 secs

     total energy              =    -467.87203957 Ry
     Harris-Foulkes estimate   =    -469.84563465 Ry
     estimated scf accuracy    <       5.28018290 Ry

     iteration #  5     ecut=    50.00 Ry     beta=0.60
     Davidson diagonalization with overlap
     ethr =  1.00E-02,  avg # of iterations =  4.4

     total cpu time spent up to now is      113.3 secs

     total energy              =    -468.47240675 Ry
     Harris-Foulkes estimate   =    -469.71353204 Ry
     estimated scf accuracy    <       9.85943942 Ry

     iteration #  6     ecut=    50.00 Ry     beta=0.60
     Davidson diagonalization with overlap
     ethr =  1.00E-02,  avg # of iterations =  1.0

     total cpu time spent up to now is      126.9 secs

     total energy              =    -468.89840249 Ry
     Harris-Foulkes estimate   =    -468.86914110 Ry
     estimated scf accuracy    <       1.13305405 Ry

     iteration #  7     ecut=    50.00 Ry     beta=0.60
     Davidson diagonalization with overlap
     ethr =  2.27E-03,  avg # of iterations =  3.9

     total cpu time spent up to now is      144.8 secs

     total energy              =    -469.07548734 Ry
     Harris-Foulkes estimate   =    -469.09180124 Ry
     estimated scf accuracy    <       0.10699253 Ry

     iteration #  8     ecut=    50.00 Ry     beta=0.60
     Davidson diagonalization with overlap
     ethr =  2.14E-04,  avg # of iterations =  5.4

     total cpu time spent up to now is      168.4 secs

     total energy              =    -468.92542545 Ry
     Harris-Foulkes estimate   =    -469.16045415 Ry
     estimated scf accuracy    <       0.81900221 Ry

     iteration #  9     ecut=    50.00 Ry     beta=0.60
     Davidson diagonalization with overlap
     ethr =  2.14E-04,  avg # of iterations =  4.9

     total cpu time spent up to now is      191.7 secs

     total energy              =    -469.31702673 Ry
     Harris-Foulkes estimate   =    -469.16544023 Ry
     estimated scf accuracy    <       1.56002853 Ry

     iteration # 10     ecut=    50.00 Ry     beta=0.60
     Davidson diagonalization with overlap
     ethr =  2.14E-04,  avg # of iterations =  5.4

     total cpu time spent up to now is      213.0 secs

     total energy              =    -469.17999719 Ry
     Harris-Foulkes estimate   =    -469.38809768 Ry
     estimated scf accuracy    <       5.31228250 Ry

     iteration # 11     ecut=    50.00 Ry     beta=0.60
     Davidson diagonalization with overlap
     ethr =  2.14E-04,  avg # of iterations =  4.2

     total cpu time spent up to now is      231.2 secs

     total energy              =    -468.96103186 Ry
     Harris-Foulkes estimate   =    -469.20980906 Ry
     estimated scf accuracy    <       2.55396652 Ry

     iteration # 12     ecut=    50.00 Ry     beta=0.60
     Davidson diagonalization with overlap
     ethr =  2.14E-04,  avg # of iterations =  4.9

     total cpu time spent up to now is      253.0 secs

     total energy              =    -469.09222518 Ry
     Harris-Foulkes estimate   =    -469.07511738 Ry
     estimated scf accuracy    <       0.01811853 Ry

     iteration # 13     ecut=    50.00 Ry     beta=0.60
     Davidson diagonalization with overlap
     ethr =  3.62E-05,  avg # of iterations =  5.4

     total cpu time spent up to now is      277.2 secs

     total energy              =    -469.16398255 Ry
     Harris-Foulkes estimate   =    -469.15085352 Ry
     estimated scf accuracy    <       1.41575340 Ry

     iteration # 14     ecut=    50.00 Ry     beta=0.60
     Davidson diagonalization with overlap
     ethr =  3.62E-05,  avg # of iterations =  1.0

     total cpu time spent up to now is      290.9 secs

     total energy              =    -469.17360415 Ry
     Harris-Foulkes estimate   =    -469.16437069 Ry
     estimated scf accuracy    <       1.58907701 Ry

     iteration # 15     ecut=    50.00 Ry     beta=0.60
     Davidson diagonalization with overlap
     ethr =  3.62E-05,  avg # of iterations =  1.0

     total cpu time spent up to now is      304.7 secs

     total energy              =    -468.95532276 Ry
     Harris-Foulkes estimate   =    -469.17390264 Ry
     estimated scf accuracy    <       1.72524899 Ry

     iteration # 16     ecut=    50.00 Ry     beta=0.60
     Davidson diagonalization with overlap
     ethr =  3.62E-05,  avg # of iterations =  5.8

     total cpu time spent up to now is      332.1 secs

     total energy              =    -469.07073851 Ry
     Harris-Foulkes estimate   =    -469.07896241 Ry
     estimated scf accuracy    <       0.04687720 Ry

     iteration # 17     ecut=    50.00 Ry     beta=0.60
     Davidson diagonalization with overlap
     ethr =  3.62E-05,  avg # of iterations =  4.5

     total cpu time spent up to now is      351.8 secs

     total energy              =    -469.07954248 Ry
     Harris-Foulkes estimate   =    -469.07915283 Ry
     estimated scf accuracy    <       0.04475840 Ry

     iteration # 18     ecut=    50.00 Ry     beta=0.60
     Davidson diagonalization with overlap
     ethr =  3.62E-05,  avg # of iterations =  1.5

     total cpu time spent up to now is      365.9 secs

     total energy              =    -469.07987288 Ry
     Harris-Foulkes estimate   =    -469.07969870 Ry
     estimated scf accuracy    <       0.05873827 Ry

     iteration # 19     ecut=    50.00 Ry     beta=0.60
     Davidson diagonalization with overlap
     ethr =  3.62E-05,  avg # of iterations =  1.4

     total cpu time spent up to now is      379.9 secs

     total energy              =    -469.07349651 Ry
     Harris-Foulkes estimate   =    -469.08065259 Ry
     estimated scf accuracy    <       0.09193927 Ry

     iteration # 20     ecut=    50.00 Ry     beta=0.60
     Davidson diagonalization with overlap
     ethr =  3.62E-05,  avg # of iterations =  1.5

     total cpu time spent up to now is      393.8 secs

     total energy              =    -469.07542597 Ry
     Harris-Foulkes estimate   =    -469.07521362 Ry
     estimated scf accuracy    <       0.02778506 Ry

     iteration # 21     ecut=    50.00 Ry     beta=0.60
     Davidson diagonalization with overlap
     ethr =  3.62E-05,  avg # of iterations =  1.0

     total cpu time spent up to now is      407.6 secs

     total energy              =    -469.07411884 Ry
     Harris-Foulkes estimate   =    -469.07556117 Ry
     estimated scf accuracy    <       0.03155112 Ry

     iteration # 22     ecut=    50.00 Ry     beta=0.60
     Davidson diagonalization with overlap
     ethr =  3.62E-05,  avg # of iterations =  1.0

     total cpu time spent up to now is      421.5 secs

     total energy              =    -469.07169946 Ry
     Harris-Foulkes estimate   =    -469.07438223 Ry
     estimated scf accuracy    <       0.01549173 Ry

     iteration # 23     ecut=    50.00 Ry     beta=0.60
     Davidson diagonalization with overlap
     ethr =  3.10E-05,  avg # of iterations =  3.3

     total cpu time spent up to now is      438.4 secs

     total energy              =    -469.07313143 Ry
     Harris-Foulkes estimate   =    -469.07452449 Ry
     estimated scf accuracy    <       0.00858143 Ry

     iteration # 24     ecut=    50.00 Ry     beta=0.60
     Davidson diagonalization with overlap
     ethr =  1.72E-05,  avg # of iterations =  1.6

     total cpu time spent up to now is      452.7 secs

     total energy              =    -469.07372606 Ry
     Harris-Foulkes estimate   =    -469.07376571 Ry
     estimated scf accuracy    <       0.00014195 Ry

     iteration # 25     ecut=    50.00 Ry     beta=0.60
     Davidson diagonalization with overlap
     ethr =  2.84E-07,  avg # of iterations =  5.8

     total cpu time spent up to now is      476.5 secs

     total energy              =    -469.07401903 Ry
     Harris-Foulkes estimate   =    -469.07406823 Ry
     estimated scf accuracy    <       0.00164945 Ry

     iteration # 26     ecut=    50.00 Ry     beta=0.60
     Davidson diagonalization with overlap
     ethr =  2.84E-07,  avg # of iterations =  1.0

     total cpu time spent up to now is      490.3 secs

     total energy              =    -469.07393432 Ry
     Harris-Foulkes estimate   =    -469.07402329 Ry
     estimated scf accuracy    <       0.00111383 Ry

     iteration # 27     ecut=    50.00 Ry     beta=0.60
     Davidson diagonalization with overlap
     ethr =  2.84E-07,  avg # of iterations =  3.2

     total cpu time spent up to now is      507.4 secs

     total energy              =    -469.07396752 Ry
     Harris-Foulkes estimate   =    -469.07397347 Ry
     estimated scf accuracy    <       0.00005733 Ry

     iteration # 28     ecut=    50.00 Ry     beta=0.60
     Davidson diagonalization with overlap
     ethr =  1.15E-07,  avg # of iterations =  1.0

     total cpu time spent up to now is      521.3 secs

     total energy              =    -469.07396869 Ry
     Harris-Foulkes estimate   =    -469.07396958 Ry
     estimated scf accuracy    <       0.00000971 Ry

     iteration # 29     ecut=    50.00 Ry     beta=0.60
     Davidson diagonalization with overlap
     ethr =  1.94E-08,  avg # of iterations =  4.0

     total cpu time spent up to now is      540.1 secs

     total energy              =    -469.07397068 Ry
     Harris-Foulkes estimate   =    -469.07397090 Ry
     estimated scf accuracy    <       0.00000240 Ry

     iteration # 30     ecut=    50.00 Ry     beta=0.60
     Davidson diagonalization with overlap
     c_bands:  2 eigenvalues not converged
     ethr =  4.80E-09,  avg # of iterations =  1.6

     total cpu time spent up to now is      553.9 secs

     total energy              =    -469.07397065 Ry
     Harris-Foulkes estimate   =    -469.07397076 Ry
     estimated scf accuracy    <       0.00000045 Ry

     iteration # 31     ecut=    50.00 Ry     beta=0.60
     Davidson diagonalization with overlap
     ethr =  8.92E-10,  avg # of iterations =  4.1

     total cpu time spent up to now is      572.8 secs

     total energy              =    -469.07397078 Ry
     Harris-Foulkes estimate   =    -469.07397084 Ry
     estimated scf accuracy    <       0.00000110 Ry

     iteration # 32     ecut=    50.00 Ry     beta=0.60
     Davidson diagonalization with overlap
     ethr =  8.92E-10,  avg # of iterations =  1.0

     total cpu time spent up to now is      586.7 secs

     total energy              =    -469.07397077 Ry
     Harris-Foulkes estimate   =    -469.07397079 Ry
     estimated scf accuracy    <       0.00000044 Ry

     iteration # 33     ecut=    50.00 Ry     beta=0.60
     Davidson diagonalization with overlap
     ethr =  8.73E-10,  avg # of iterations =  1.0

     total cpu time spent up to now is      600.5 secs

     total energy              =    -469.07397076 Ry
     Harris-Foulkes estimate   =    -469.07397078 Ry
     estimated scf accuracy    <       0.00000028 Ry

     iteration # 34     ecut=    50.00 Ry     beta=0.60
     Davidson diagonalization with overlap
     ethr =  5.51E-10,  avg # of iterations =  1.0

     total cpu time spent up to now is      614.3 secs

     total energy              =    -469.07397076 Ry
     Harris-Foulkes estimate   =    -469.07397076 Ry
     estimated scf accuracy    <       0.00000008 Ry

     iteration # 35     ecut=    50.00 Ry     beta=0.60
     Davidson diagonalization with overlap
     ethr =  1.69E-10,  avg # of iterations =  3.8

     total cpu time spent up to now is      632.4 secs

     total energy              =    -469.07397077 Ry
     Harris-Foulkes estimate   =    -469.07397078 Ry
     estimated scf accuracy    <       0.00000005 Ry

     iteration # 36     ecut=    50.00 Ry     beta=0.60
     Davidson diagonalization with overlap
     ethr =  9.33E-11,  avg # of iterations =  1.0

     total cpu time spent up to now is      646.2 secs

     total energy              =    -469.07397078 Ry
     Harris-Foulkes estimate   =    -469.07397078 Ry
     estimated scf accuracy    <          6.1E-10 Ry

     iteration # 37     ecut=    50.00 Ry     beta=0.60
     Davidson diagonalization with overlap
     ethr =  1.22E-12,  avg # of iterations =  5.7

     total cpu time spent up to now is      671.2 secs

     total energy              =    -469.07397078 Ry
     Harris-Foulkes estimate   =    -469.07397078 Ry
     estimated scf accuracy    <       0.00000005 Ry

     iteration # 38     ecut=    50.00 Ry     beta=0.60
     Davidson diagonalization with overlap
     ethr =  1.22E-12,  avg # of iterations =  4.2

     total cpu time spent up to now is      691.0 secs

     total energy              =    -469.07397078 Ry
     Harris-Foulkes estimate   =    -469.07397078 Ry
     estimated scf accuracy    <       0.00000002 Ry

     iteration # 39     ecut=    50.00 Ry     beta=0.60
     Davidson diagonalization with overlap
     ethr =  1.22E-12,  avg # of iterations =  1.0

     total cpu time spent up to now is      704.9 secs

     total energy              =    -469.07397078 Ry
     Harris-Foulkes estimate   =    -469.07397078 Ry
     estimated scf accuracy    <       0.00000001 Ry

     iteration # 40     ecut=    50.00 Ry     beta=0.60
     Davidson diagonalization with overlap
     ethr =  1.22E-12,  avg # of iterations =  3.7

     total cpu time spent up to now is      723.3 secs

     total energy              =    -469.07397078 Ry
     Harris-Foulkes estimate   =    -469.07397078 Ry
     estimated scf accuracy    <          1.2E-09 Ry

     iteration # 41     ecut=    50.00 Ry     beta=0.60
     Davidson diagonalization with overlap
     ethr =  1.22E-12,  avg # of iterations =  1.0

     total cpu time spent up to now is      737.2 secs

     total energy              =    -469.07397078 Ry
     Harris-Foulkes estimate   =    -469.07397078 Ry
     estimated scf accuracy    <          8.5E-10 Ry

     iteration # 42     ecut=    50.00 Ry     beta=0.60
     Davidson diagonalization with overlap
     ethr =  1.22E-12,  avg # of iterations =  1.0

     total cpu time spent up to now is      750.9 secs

     total energy              =    -469.07397078 Ry
     Harris-Foulkes estimate   =    -469.07397078 Ry
     estimated scf accuracy    <          6.2E-10 Ry

     iteration # 43     ecut=    50.00 Ry     beta=0.60
     Davidson diagonalization with overlap
     ethr =  1.22E-12,  avg # of iterations =  1.0

     total cpu time spent up to now is      764.9 secs

     total energy              =    -469.07397078 Ry
     Harris-Foulkes estimate   =    -469.07397078 Ry
     estimated scf accuracy    <          1.0E-09 Ry

     iteration # 44     ecut=    50.00 Ry     beta=0.60
     Davidson diagonalization with overlap
     ethr =  1.22E-12,  avg # of iterations =  3.7

     total cpu time spent up to now is      782.0 secs

     total energy              =    -469.07397078 Ry
     Harris-Foulkes estimate   =    -469.07397078 Ry
     estimated scf accuracy    <          4.9E-10 Ry

     iteration # 45     ecut=    50.00 Ry     beta=0.60
     Davidson diagonalization with overlap
     ethr =  9.74E-13,  avg # of iterations =  1.1

     total cpu time spent up to now is      796.0 secs

     total energy              =    -469.07397078 Ry
     Harris-Foulkes estimate   =    -469.07397078 Ry
     estimated scf accuracy    <          6.7E-10 Ry

     iteration # 46     ecut=    50.00 Ry     beta=0.60
     Davidson diagonalization with overlap
     ethr =  9.74E-13,  avg # of iterations =  1.0

     total cpu time spent up to now is      809.8 secs

     total energy              =    -469.07397078 Ry
     Harris-Foulkes estimate   =    -469.07397078 Ry
     estimated scf accuracy    <          2.1E-10 Ry

     iteration # 47     ecut=    50.00 Ry     beta=0.60
     Davidson diagonalization with overlap
     ethr =  4.10E-13,  avg # of iterations =  1.0

     total cpu time spent up to now is      823.8 secs

     total energy              =    -469.07397078 Ry
     Harris-Foulkes estimate   =    -469.07397078 Ry
     estimated scf accuracy    <          1.6E-10 Ry

     iteration # 48     ecut=    50.00 Ry     beta=0.60
     Davidson diagonalization with overlap
     ethr =  3.14E-13,  avg # of iterations =  1.0

     total cpu time spent up to now is      837.8 secs

     total energy              =    -469.07397078 Ry
     Harris-Foulkes estimate   =    -469.07397078 Ry
     estimated scf accuracy    <          2.1E-10 Ry

     iteration # 49     ecut=    50.00 Ry     beta=0.60
     Davidson diagonalization with overlap
     ethr =  3.14E-13,  avg # of iterations =  1.2

     total cpu time spent up to now is      851.7 secs

     End of self-consistent calculation

          k = 0.0000 0.0000 0.0000 (  3479 PWs)   bands (ev):

   -44.8111 -44.7664 -42.4536 -42.3569 -21.0759 -21.0759 -21.0759 -20.9673
   -20.9673 -20.9673 -18.5614 -18.5614 -18.5614 -18.2984 -18.2984 -18.2984
     6.7063  10.0351  10.0351  11.3387  11.3387  11.3387  11.4215  11.4215
    11.4215  12.7832  12.7832  12.7832  14.3112  14.3112

          k = 0.0109 0.0109-0.0109 (  3509 PWs)   bands (ev):

   -44.8107 -44.7669 -42.4526 -42.3580 -21.0768 -21.0768 -21.0760 -20.9671
   -20.9665 -20.9665 -18.5629 -18.5629 -18.5604 -18.2998 -18.2968 -18.2968
     6.7745  10.0694  10.0694  11.2015  11.3090  11.3090  11.4627  11.4661
    11.4661  12.7599  12.7599  12.8395  14.2989  14.2989

          k = 0.0219 0.0219-0.0219 (  3521 PWs)   bands (ev):

   -44.8092 -44.7683 -42.4497 -42.3611 -21.0792 -21.0792 -21.0762 -20.9669
   -20.9644 -20.9644 -18.5670 -18.5670 -18.5579 -18.3031 -18.2924 -18.2924
     6.9754  10.1692  10.1692  11.0245  11.2827  11.2827  11.3622  11.5340
    11.5340  12.6866  12.6866  13.0122  14.2703  14.2703

          k = 0.0328 0.0328-0.0328 (  3521 PWs)   bands (ev):

   -44.8069 -44.7704 -42.4451 -42.3659 -21.0824 -21.0824 -21.0761 -20.9669
   -20.9615 -20.9615 -18.5725 -18.5725 -18.5552 -18.3069 -18.2864 -18.2864
     7.2986  10.3249  10.3249  10.9105  11.0636  11.2898  11.2898  11.5863
    11.5863  12.5591  12.5591  13.3037  13.9780  14.2448

          k = 0.0438 0.0438-0.0438 (  3506 PWs)   bands (ev):

   -44.8042 -44.7730 -42.4396 -42.3716 -21.0857 -21.0857 -21.0752 -20.9676
   -20.9587 -20.9587 -18.5780 -18.5780 -18.5534 -18.3099 -18.2802 -18.2802
     7.7275  10.5185  10.5185  10.6022  10.9107  11.3351  11.3351  11.6042
    11.6042  12.3850  12.3850  13.2127  13.7071  14.2391

          k = 0.0547 0.0547-0.0547 (  3489 PWs)   bands (ev):

   -44.8016 -44.7755 -42.4342 -42.3772 -21.0883 -21.0883 -21.0737 -20.9690
   -20.9564 -20.9564 -18.5825 -18.5825 -18.5527 -18.3116 -18.2753 -18.2753
     8.2395  10.0423  10.7182  10.7182  11.0508  11.4101  11.4101  11.5807
    11.5807  12.1950  12.1950  12.5110  14.2042  14.2548

          k = 0.0656 0.0656-0.0656 (  3501 PWs)   bands (ev):

   -44.7998 -44.7772 -42.4306 -42.3810 -21.0897 -21.0897 -21.0725 -20.9702
   -20.9552 -20.9552 -18.5850 -18.5850 -18.5525 -18.3124 -18.2725 -18.2725
     8.8005   9.4500  10.8629  10.8629  11.3116  11.4777  11.4777  11.5428
    11.5428  11.9541  12.0525  12.0525  14.2751  14.2751

          k = 0.0219 0.0000 0.0000 (  3523 PWs)   bands (ev):

   -44.8105 -44.7671 -42.4522 -42.3583 -21.0779 -21.0779 -21.0744 -20.9684
   -20.9656 -20.9656 -18.5645 -18.5645 -18.5577 -18.3031 -18.2949 -18.2949
     6.7972  10.0745  10.0855  11.2296  11.2723  11.2723  11.2936  11.5667
    11.5667  12.7750  12.7750  12.8143  14.2580  14.3268

          k = 0.0328 0.0109-0.0109 (  3522 PWs)   bands (ev):

   -44.8093 -44.7681 -42.4499 -42.3608 -21.0805 -21.0802 -21.0733 -20.9693
   -20.9635 -20.9634 -18.5686 -18.5683 -18.5537 -18.3078 -18.2909 -18.2903
     6.9537  10.1420  10.1681  11.0533  11.1388  11.2542  11.3376  11.6170
    11.6726  12.7097  12.7406  12.9396  14.1955  14.3302

          k = 0.0438 0.0219-0.0219 (  3519 PWs)   bands (ev):

   -44.8073 -44.7700 -42.4459 -42.3650 -21.0838 -21.0832 -21.0728 -20.9701
   -20.9605 -20.9605 -18.5740 -18.5740 -18.5493 -18.3127 -18.2853 -18.2843
     7.2357  10.2628  10.3085  10.8940  10.9684  11.2647  11.4018  11.5589
    11.7561  12.5914  12.6431  13.1920  14.1384  14.2346

          k = 0.0547 0.0328-0.0328 (  3515 PWs)   bands (ev):

   -44.8047 -44.7725 -42.4406 -42.3706 -21.0871 -21.0862 -21.0721 -20.9713
   -20.9577 -20.9571 -18.5809 -18.5796 -18.5453 -18.3169 -18.2789 -18.2781
     7.6279  10.4045  10.4902  10.6778  10.8426  11.3082  11.4579  11.4957
    11.7899  12.4346  12.4800  13.4810  13.5588  14.1162

          k = 0.0656 0.0438-0.0438 (  3504 PWs)   bands (ev):

   -44.8020 -44.7751 -42.4350 -42.3764 -21.0896 -21.0890 -21.0709 -20.9731
   -20.9555 -20.9542 -18.5873 -18.5839 -18.5425 -18.3197 -18.2733 -18.2729
     8.1093  10.1743  10.6148  10.6862  10.9175  11.3815  11.4875  11.5252
    11.7552  12.2581  12.2778  12.7720  14.0247  14.1377

          k = 0.0766 0.0547-0.0547 (  3512 PWs)   bands (ev):

   -44.7998 -44.7772 -42.4305 -42.3810 -21.0910 -21.0909 -21.0696 -20.9748
   -20.9543 -20.9521 -18.5919 -18.5863 -18.5411 -18.3210 -18.2708 -18.2685
     8.6514   9.6366  10.7347  10.8514  11.0906  11.4640  11.5351  11.6080
    11.6588  12.0970  12.1036  12.1893  14.1883  14.2783

          k =-0.0547-0.0766 0.0766 (  3507 PWs)   bands (ev):

   -44.7992 -44.7778 -42.4292 -42.3824 -21.0920 -21.0907 -21.0693 -20.9753
   -20.9544 -20.9512 -18.5937 -18.5863 -18.5408 -18.3211 -18.2711 -18.2667
     9.0009   9.2875  10.7755  10.9119  11.1765  11.4904  11.5548  11.5632
    11.7455  11.9341  12.0291  12.0590  14.2387  14.2567

          k =-0.0438-0.0656 0.0656 (  3503 PWs)   bands (ev):

   -44.8004 -44.7766 -42.4318 -42.3797 -21.0916 -21.0890 -21.0704 -20.9741
   -20.9557 -20.9517 -18.5924 -18.5837 -18.5418 -18.3200 -18.2740 -18.2677
     8.4633   9.8362  10.7072  10.8116  11.0291  11.4447  11.5033  11.5119
    11.7393  12.1212  12.1693  12.3584  14.2099  14.2633

          k =-0.0328-0.0547 0.0547 (  3498 PWs)   bands (ev):

   -44.8029 -44.7742 -42.4369 -42.3745 -21.0899 -21.0863 -21.0722 -20.9719
   -20.9580 -20.9536 -18.5882 -18.5792 -18.5441 -18.3175 -18.2791 -18.2715
     7.9389  10.3573  10.5819  10.6166  10.8838  11.3757  11.4440  11.4931
    11.7542  12.2899  12.3607  12.9990  13.8645  14.1741

          k =-0.0219-0.0438 0.0438 (  3511 PWs)   bands (ev):

   -44.8057 -44.7716 -42.4425 -42.3686 -21.0870 -21.0829 -21.0738 -20.9700
   -20.9609 -20.9567 -18.5818 -18.5737 -18.5477 -18.3137 -18.2853 -18.2775
     7.4852  10.3872  10.4119  10.8077  10.8597  11.3279  11.4375  11.4702
    11.7280  12.4617  12.5518  13.4338  13.7336  14.1646

          k =-0.0109-0.0328 0.0328 (  3519 PWs)   bands (ev):

   -44.8081 -44.7693 -42.4474 -42.3634 -21.0834 -21.0797 -21.0747 -20.9687
   -20.9637 -20.9604 -18.5745 -18.5683 -18.5525 -18.3086 -18.2912 -18.2846
     7.1281  10.2394  10.2400  10.9548  11.0406  11.3212  11.4328  11.5015
    11.6554  12.6031  12.6933  13.1109  14.1944  14.4814

          k = 0.0000-0.0219 0.0219 (  3529 PWs)   bands (ev):

   -44.8098 -44.7677 -42.4509 -42.3597 -21.0797 -21.0775 -21.0753 -20.9678
   -20.9658 -20.9639 -18.5677 -18.5643 -18.5572 -18.3034 -18.2955 -18.2916
     6.8868  10.1222  10.1270  11.1268  11.1506  11.3376  11.4078  11.5225
    11.5682  12.7026  12.7611  12.9122  14.2482  14.3101

          k = 0.0438 0.0000 0.0000 (  3535 PWs)   bands (ev):

   -44.8085 -44.7689 -42.4482 -42.3626 -21.0833 -21.0833 -21.0699 -20.9720
   -20.9611 -20.9611 -18.5726 -18.5726 -18.5468 -18.3163 -18.2856 -18.2856
     7.0646  10.1610  10.2353  10.9625  10.9629  11.2429  11.2429  11.8250
    11.8250  12.7568  12.7568  12.9109  14.0813  14.3613

          k = 0.0547 0.0109-0.0109 (  3524 PWs)   bands (ev):

   -44.8068 -44.7706 -42.4448 -42.3662 -21.0867 -21.0866 -21.0674 -20.9744
   -20.9582 -20.9580 -18.5784 -18.5779 -18.5393 -18.3246 -18.2795 -18.2795
     7.3018  10.2128  10.3629  10.7548  10.8208  11.2551  11.2840  11.9034
    11.9583  12.6737  12.7121  13.0906  13.9645  14.3638

          k = 0.0656 0.0219-0.0219 (  3516 PWs)   bands (ev):

   -44.8044 -44.7728 -42.4398 -42.3714 -21.0901 -21.0898 -21.0656 -20.9771
   -20.9553 -20.9542 -18.5861 -18.5833 -18.5316 -18.3317 -18.2734 -18.2728
     7.6511  10.2550  10.5350  10.5503  10.7433  11.2950  11.3677  11.8621
    12.0322  12.5294  12.5808  13.4153  13.7567  13.8996

          k = 0.0766 0.0328-0.0328 (  3507 PWs)   bands (ev):

   -44.8016 -44.7755 -42.4342 -42.3772 -21.0926 -21.0925 -21.0639 -20.9803
   -20.9531 -20.9504 -18.5944 -18.5876 -18.5249 -18.3370 -18.2687 -18.2662
     8.0918  10.1318  10.4300  10.7262  10.7789  11.3629  11.4844  11.7837
    12.0112  12.3661  12.3766  13.0775  13.8459  13.9122

          k = 0.0875 0.0438-0.0438 (  3511 PWs)   bands (ev):

   -44.7991 -44.7778 -42.4291 -42.3825 -21.0945 -21.0938 -21.0624 -20.9833
   -20.9520 -20.9473 -18.6013 -18.5899 -18.5204 -18.3399 -18.2664 -18.2609
     8.5966   9.7559  10.4698  10.8723  10.8974  11.4490  11.6441  11.7447
    11.8851  12.1663  12.2131  12.5116  13.9844  14.1791

          k =-0.0438-0.0875 0.0875 (  3507 PWs)   bands (ev):

   -44.7979 -44.7790 -42.4265 -42.3852 -21.0956 -21.0934 -21.0621 -20.9847
   -20.9522 -20.9456 -18.6053 -18.5898 -18.5189 -18.3401 -18.2668 -18.2578
     9.1137   9.2956  10.5339  10.9195  10.9925  11.5097  11.7059  11.7305
    11.8834  12.0342  12.1215  12.1621  14.0770  14.0813

          k =-0.0328-0.0766 0.0766 (  3503 PWs)   bands (ev):

   -44.7986 -44.7783 -42.4280 -42.3836 -21.0957 -21.0916 -21.0637 -20.9833
   -20.9535 -20.9455 -18.6055 -18.5873 -18.5209 -18.3376 -18.2699 -18.2576
     8.7456   9.6790  10.5547  10.8629  10.9474  11.4740  11.5742  11.6963
    11.9546  12.0554  12.1754  12.3203  14.0001  14.1618

          k =-0.0219-0.0656 0.0656 (  3501 PWs)   bands (ev):

   -44.8008 -44.7762 -42.4326 -42.3789 -21.0945 -21.0887 -21.0667 -20.9797
   -20.9559 -20.9472 -18.6016 -18.5828 -18.5263 -18.3326 -18.2751 -18.2607
     8.2395  10.1541  10.5280  10.7728  10.7769  11.4193  11.4796  11.6502
    11.8919  12.1896  12.3341  12.8629  14.0053  14.0472

          k =-0.0109-0.0547 0.0547 (  3505 PWs)   bands (ev):

   -44.8036 -44.7736 -42.4383 -42.3730 -21.0919 -21.0852 -21.0699 -20.9755
   -20.9589 -20.9507 -18.5942 -18.5774 -18.5342 -18.3254 -18.2813 -18.2667
     7.7810  10.4003  10.5620  10.5989  10.7494  11.3774  11.4195  11.6425
    11.8041  12.3475  12.5154  13.5265  13.6224  14.1115

          k = 0.0000-0.0438 0.0438 (  3515 PWs)   bands (ev):

   -44.8061 -44.7711 -42.4435 -42.3676 -21.0881 -21.0820 -21.0725 -20.9717
   -20.9617 -20.9553 -18.5846 -18.5721 -18.5435 -18.3170 -18.2872 -18.2751
     7.4024  10.3340  10.3754  10.8150  10.8430  11.3585  11.3885  11.6441
    11.6947  12.4897  12.6484  13.3029  14.1328  14.1796

          k = 0.0656 0.0000 0.0000 (  3519 PWs)   bands (ev):

   -44.8053 -44.7719 -42.4418 -42.3693 -21.0904 -21.0904 -21.0626 -20.9783
   -20.9552 -20.9552 -18.5831 -18.5831 -18.5292 -18.3366 -18.2733 -18.2733
     7.4930  10.1628  10.4812  10.5424  10.7183  11.2645  11.2645  12.1577
    12.1577  12.7452  12.7452  13.0742  13.7585  14.4203

          k = 0.0766 0.0109-0.0109 (  3514 PWs)   bands (ev):

   -44.8031 -44.7740 -42.4373 -42.3740 -21.0939 -21.0939 -21.0588 -20.9824
   -20.9523 -20.9518 -18.5896 -18.5884 -18.5186 -18.3474 -18.2673 -18.2668
     7.7966  10.0963  10.3415  10.6484  10.6742  11.2968  11.3161  12.2564
    12.3005  12.6651  12.6865  13.2964  13.6079  13.9654

          k = 0.0875 0.0219-0.0219 (  3499 PWs)   bands (ev):

   -44.8005 -44.7765 -42.4318 -42.3797 -21.0965 -21.0965 -21.0557 -20.9872
   -20.9501 -20.9479 -18.5980 -18.5925 -18.5080 -18.3562 -18.2626 -18.2603
     8.1920   9.9924  10.1944  10.6794  10.8387  11.3541  11.4270  12.2131
    12.3232  12.4997  12.5187  13.3652  13.5924  13.6780

          k = 0.0984 0.0328-0.0328 (  3501 PWs)   bands (ev):

   -44.7978 -44.7791 -42.4263 -42.3854 -21.0983 -21.0977 -21.0533 -20.9920
   -20.9490 -20.9442 -18.6063 -18.5947 -18.4993 -18.3620 -18.2603 -18.2547
     8.6510   9.7716  10.1756  10.6887  11.0128  11.4350  11.6012  12.1082
    12.1622  12.2924  12.3709  12.8291  13.6845  13.9104

          k =-0.0328-0.0984 0.0984 (  3508 PWs)   bands (ev):

   -44.7961 -44.7808 -42.4226 -42.3892 -21.0991 -21.0973 -21.0527 -20.9948
   -20.9491 -20.9417 -18.6124 -18.5946 -18.4952 -18.3634 -18.2608 -18.2510
     9.1396   9.4424  10.2433  10.6626  11.1191  11.5198  11.8444  11.9092
    12.0250  12.1169  12.2602  12.4434  13.8263  13.9078

          k =-0.0219-0.0875 0.0875 (  3502 PWs)   bands (ev):

   -44.7963 -44.7806 -42.4230 -42.3887 -21.0991 -21.0953 -21.0550 -20.9936
   -20.9506 -20.9408 -18.6147 -18.5922 -18.4977 -18.3592 -18.2640 -18.2500
     9.0359   9.6210  10.3177  10.6178  11.1086  11.5232  11.7222  11.9380
    12.0192  12.1231  12.2296  12.3069  13.7587  13.9693

          k =-0.0109-0.0766 0.0766 (  3501 PWs)   bands (ev):

   -44.7983 -44.7787 -42.4273 -42.3844 -21.0980 -21.0922 -21.0597 -20.9887
   -20.9530 -20.9421 -18.6122 -18.5878 -18.5065 -18.3502 -18.2692 -18.2522
     8.5941  10.0494  10.3421  10.6216  10.9649  11.4560  11.5781  11.8798
    12.0113  12.0871  12.2964  12.7284  13.6244  14.1685

          k = 0.0000-0.0656 0.0656 (  3499 PWs)   bands (ev):

   -44.8010 -44.7760 -42.4329 -42.3786 -21.0957 -21.0886 -21.0651 -20.9821
   -20.9560 -20.9455 -18.6051 -18.5825 -18.5195 -18.3383 -18.2755 -18.2579
     8.1618  10.3285  10.4216  10.6591  10.7583  11.4118  11.4647  11.8192
    11.8600  12.2174  12.4192  13.2393  13.6657  13.9095

          k = 0.0875 0.0000 0.0000 (  3503 PWs)   bands (ev):

   -44.8012 -44.7759 -42.4332 -42.3782 -21.0976 -21.0976 -21.0527 -20.9875
   -20.9494 -20.9494 -18.5934 -18.5934 -18.5062 -18.3617 -18.2612 -18.2612
     8.0536   9.9509  10.1420  10.6273  10.8169  11.3161  11.3161  12.5377
    12.5377  12.7633  12.7633  13.2980  13.3093  13.9421

          k = 0.0984 0.0109-0.0109 (  3496 PWs)   bands (ev):

   -44.7987 -44.7783 -42.4280 -42.3836 -21.1003 -21.1003 -21.0477 -20.9932
   -20.9471 -20.9463 -18.5994 -18.5975 -18.4932 -18.3742 -18.2565 -18.2557
     8.4012   9.8371   9.9872  10.5791  11.0148  11.3563  11.3780  12.6176
    12.6317  12.6816  12.7027  13.2089  13.5493  13.5679

          k = 0.1094 0.0219-0.0219 (  3492 PWs)   bands (ev):

   -44.7960 -44.7809 -42.4223 -42.3894 -21.1019 -21.1016 -21.0437 -20.9996
   -20.9459 -20.9429 -18.6070 -18.5996 -18.4805 -18.3840 -18.2541 -18.2507
     8.8097   9.7178   9.9234  10.5051  11.1956  11.4253  11.5114  12.3220
    12.5513  12.5708  12.6015  13.0968  13.3343  13.6451

          k =-0.0219-0.1094 0.1094 (  3491 PWs)   bands (ev):

   -44.7938 -44.7830 -42.4177 -42.3941 -21.1022 -21.1012 -21.0419 -21.0044
   -20.9461 -20.9400 -18.6141 -18.5995 -18.4726 -18.3881 -18.2546 -18.2470
     9.2402   9.5385   9.9752  10.4012  11.2931  11.5302  11.7228  12.0111
    12.3880  12.3934  12.4442  12.7013  13.5234  13.6413

          k =-0.0109-0.0984 0.0984 (  3499 PWs)   bands (ev):

   -44.7936 -44.7832 -42.4173 -42.3945 -21.1017 -21.0993 -21.0448 -21.0038
   -20.9475 -20.9385 -18.6183 -18.5972 -18.4753 -18.3823 -18.2577 -18.2456
     9.2759   9.6699  10.0569  10.3378  11.2820  11.5896  11.8104  11.9988
    12.1437  12.2534  12.3458  12.4012  13.7278  13.7569

          k = 0.0000-0.0875 0.0875 (  3500 PWs)   bands (ev):

   -44.7956 -44.7813 -42.4215 -42.3902 -21.1004 -21.0960 -21.0518 -20.9975
   -20.9500 -20.9392 -18.6179 -18.5930 -18.4882 -18.3680 -18.2630 -18.2472
     8.9561  10.0182  10.0700  10.4455  11.1564  11.5189  11.7261  12.0212
    12.0848  12.1336  12.2699  12.4577  13.5886  13.9223

          k = 0.1094 0.0000 0.0000 (  3503 PWs)   bands (ev):

   -44.7964 -44.7806 -42.4231 -42.3887 -21.1033 -21.1033 -21.0407 -20.9993
   -20.9447 -20.9447 -18.6014 -18.6014 -18.4792 -18.3899 -18.2517 -18.2517
     8.6983   9.7096   9.8413  10.4564  11.2327  11.3721  11.3721  12.7866
    12.8080  12.8080  12.9285  12.9285  13.5527  13.5527

          k = 0.1203 0.0109-0.0109 (  3486 PWs)   bands (ev):

   -44.7937 -44.7832 -42.4174 -42.3944 -21.1048 -21.1047 -21.0348 -21.0063
   -20.9435 -20.9426 -18.6058 -18.6036 -18.4645 -18.4034 -18.2492 -18.2482
     9.0489   9.6326   9.7653  10.2999  11.3866  11.4330  11.4690  12.3913
    12.7843  12.9145  12.9458  13.0551  13.2826  13.4253

          k =-0.0109-0.1203 0.1203 (  3485 PWs)   bands (ev):

   -44.7912 -44.7856 -42.4121 -42.3998 -21.1048 -21.1045 -21.0310 -21.0127
   -20.9436 -20.9402 -18.6118 -18.6035 -18.4527 -18.4117 -18.2495 -18.2455
     9.3916   9.5765   9.7983  10.1251  11.4136  11.5699  11.6489  12.0295
    12.6666  12.7480  12.7549  12.9489  13.2635  13.3901

          k = 0.0000-0.1094 0.1094 (  3492 PWs)   bands (ev):

   -44.7912 -44.7856 -42.4120 -42.3998 -21.1036 -21.1025 -21.0350 -21.0117
   -20.9450 -20.9385 -18.6168 -18.6012 -18.4572 -18.4031 -18.2525 -18.2444
     9.4306   9.7132   9.8653  10.0915  11.3996  11.7176  11.7753  11.7883
    12.4435  12.5056  12.5260  12.6207  13.4965  13.5121

          k = 0.1313 0.0000 0.0000 (  3495 PWs)   bands (ev):

   -44.7911 -44.7857 -42.4118 -42.4001 -21.1064 -21.1064 -21.0271 -21.0129
   -20.9422 -20.9422 -18.6057 -18.6057 -18.4499 -18.4197 -18.2465 -18.2465
     9.3163   9.5561   9.7278  10.0709  11.4081  11.4081  11.7144  12.2419
    12.9295  12.9295  13.1029  13.1029  13.3502  13.3502

          k = 0.0000-0.1313 0.1313 (  3500 PWs)   bands (ev):

   -44.7887 -44.7881 -42.4066 -42.4052 -21.1063 -21.1063 -21.0220 -21.0191
   -20.9422 -20.9413 -18.6081 -18.6057 -18.4375 -18.4306 -18.2466 -18.2456
     9.4922   9.5162   9.8430   9.8724  11.4185  11.4548  11.9329  11.9345
    12.8890  12.9688  12.9733  13.1371  13.2218  13.2733

          k = 0.0438 0.0219 0.0000 (  3518 PWs)   bands (ev):

   -44.8079 -44.7695 -42.4470 -42.3638 -21.0846 -21.0822 -21.0714 -20.9712
   -20.9619 -20.9595 -18.5760 -18.5712 -18.5474 -18.3148 -18.2875 -18.2827
     7.1505  10.2124  10.2710  10.9307  10.9368  11.2932  11.3075  11.7337
    11.7506  12.6345  12.7259  13.0641  14.1101  14.3384

          k = 0.0547 0.0328-0.0109 (  3510 PWs)   bands (ev):

   -44.8057 -44.7716 -42.4426 -42.3685 -21.0886 -21.0849 -21.0699 -20.9734
   -20.9594 -20.9552 -18.5844 -18.5759 -18.5401 -18.3218 -18.2825 -18.2747
     7.4658  10.3092  10.4255  10.7346  10.8062  11.3079  11.3701  11.7074
    11.8446  12.5081  12.6279  13.3294  13.9939  14.0491

          k = 0.0656 0.0438-0.0219 (  3510 PWs)   bands (ev):

   -44.8030 -44.7741 -42.4371 -42.3743 -21.0918 -21.0879 -21.0681 -20.9764
   -20.9567 -20.9514 -18.5925 -18.5813 -18.5333 -18.3277 -18.2767 -18.2678
     7.8810  10.3238  10.5295  10.6133  10.7819  11.3554  11.4472  11.6486
    11.8901  12.3501  12.4534  13.2791  13.7149  14.0427

          k = 0.0766 0.0547-0.0328 (  3510 PWs)   bands (ev):

   -44.8003 -44.7767 -42.4316 -42.3799 -21.0938 -21.0905 -21.0661 -20.9795
   -20.9544 -20.9486 -18.5987 -18.5858 -18.5282 -18.3320 -18.2716 -18.2628
     8.3710   9.9668  10.5505  10.7825  10.8928  11.4300  11.5338  11.6375
    11.8732  12.1812  12.2568  12.6387  14.0791  14.1813

          k =-0.0547-0.0766 0.0984 (  3503 PWs)   bands (ev):

   -44.7986 -44.7784 -42.4279 -42.3837 -21.0946 -21.0922 -21.0646 -20.9817
   -20.9530 -20.9471 -18.6021 -18.5884 -18.5254 -18.3341 -18.2686 -18.2603
     8.9011   9.4675  10.6074  10.8800  11.0411  11.4969  11.6110  11.6670
    11.8656  12.0537  12.1168  12.1660  14.1331  14.1730

          k = 0.0656 0.0219 0.0000 (  3518 PWs)   bands (ev):

   -44.8048 -44.7724 -42.4408 -42.3704 -21.0910 -21.0893 -21.0641 -20.9779
   -20.9560 -20.9537 -18.5866 -18.5818 -18.5297 -18.3344 -18.2751 -18.2711
     7.5721  10.2106  10.5077  10.5493  10.7262  11.2997  11.3013  12.0464
    12.0495  12.5932  12.6829  13.2620  13.8368  14.1571

          k = 0.0766 0.0328-0.0109 (  3502 PWs)   bands (ev):

   -44.8023 -44.7748 -42.4356 -42.3758 -21.0946 -21.0920 -21.0613 -20.9821
   -20.9535 -20.9495 -18.5953 -18.5866 -18.5195 -18.3433 -18.2701 -18.2636
     7.9436  10.1630  10.3652  10.6646  10.7310  11.3469  11.3950  12.0183
    12.1230  12.4542  12.5483  13.5512  13.5855  13.7930

          k = 0.0875 0.0438-0.0219 (  3509 PWs)   bands (ev):

   -44.7996 -44.7774 -42.4299 -42.3817 -21.0968 -21.0942 -21.0587 -20.9868
   -20.9514 -20.9459 -18.6032 -18.5907 -18.5104 -18.3503 -18.2657 -18.2578
     8.3909   9.9649  10.2961  10.7104  10.9071  11.4191  11.5333  11.9442
    12.0919  12.2851  12.3598  12.9429  13.8355  13.9415

          k =-0.0438-0.0875 0.1094 (  3506 PWs)   bands (ev):

   -44.7973 -44.7796 -42.4252 -42.3864 -21.0978 -21.0954 -21.0568 -20.9905
   -20.9503 -20.9435 -18.6090 -18.5929 -18.5045 -18.3541 -18.2633 -18.2540
     8.8814   9.6099  10.3375  10.7207  11.0757  11.4997  11.7041  11.8937
    11.9690  12.1278  12.2174  12.4663  13.9197  13.9468

          k =-0.0328-0.0766 0.0984 (  3504 PWs)   bands (ev):

   -44.7967 -44.7802 -42.4239 -42.3878 -21.0980 -21.0951 -21.0569 -20.9913
   -20.9505 -20.9425 -18.6114 -18.5925 -18.5036 -18.3539 -18.2639 -18.2525
     9.1626   9.3841  10.3891  10.6986  11.1341  11.5355  11.7095  11.8641
    11.9884  12.1008  12.1788  12.2232  13.9041  14.0080

          k =-0.0219-0.0656 0.0875 (  3502 PWs)   bands (ev):

   -44.7981 -44.7788 -42.4268 -42.3848 -21.0976 -21.0932 -21.0594 -20.9884
   -20.9521 -20.9432 -18.6098 -18.5897 -18.5082 -18.3495 -18.2673 -18.2538
     8.6885   9.8381  10.3894  10.6820  11.0216  11.4903  11.5898  11.8353
    12.0139  12.1025  12.2443  12.5667  13.7967  14.0781

          k =-0.0109-0.0547 0.0766 (  3501 PWs)   bands (ev):

   -44.8006 -44.7764 -42.4321 -42.3793 -21.0960 -21.0904 -21.0631 -20.9834
   -20.9545 -20.9458 -18.6041 -18.5852 -18.5171 -18.3417 -18.2724 -18.2581
     8.2207  10.1945  10.3922  10.6689  10.8257  11.4242  11.4765  11.8284
    11.9540  12.2391  12.4000  13.1173  13.7879  13.9339

          k = 0.0000-0.0438 0.0656 (  3507 PWs)   bands (ev):

   -44.8033 -44.7738 -42.4378 -42.3735 -21.0929 -21.0874 -21.0667 -20.9780
   -20.9572 -20.9500 -18.5952 -18.5801 -18.5286 -18.3320 -18.2780 -18.2653
     7.8023  10.3202  10.5392  10.5841  10.7245  11.3760  11.3850  11.8383
    11.8629  12.3840  12.5506  13.5733  13.7024  13.9464

          k = 0.0875 0.0219-0.0000 (  3499 PWs)   bands (ev):

   -44.8008 -44.7762 -42.4325 -42.3790 -21.0976 -21.0965 -21.0542 -20.9876
   -20.9500 -20.9481 -18.5966 -18.5926 -18.5063 -18.3594 -18.2627 -18.2597
     8.1224   9.9874  10.1592  10.6458  10.8323  11.3516  11.3578  12.3959
    12.3971  12.5917  12.6312  13.4811  13.5057  13.7042

          k = 0.0984 0.0328-0.0109 (  3498 PWs)   bands (ev):

   -44.7981 -44.7788 -42.4268 -42.3848 -21.1000 -21.0984 -21.0502 -20.9937
   -20.9480 -20.9446 -18.6043 -18.5964 -18.4935 -18.3697 -18.2589 -18.2540
     8.5231   9.8720  10.0420  10.6093  11.0313  11.4155  11.4769  12.3433
    12.3751  12.4403  12.4819  13.2009  13.5189  13.7066

          k =-0.0328-0.0984 0.1203 (  3496 PWs)   bands (ev):

   -44.7956 -44.7813 -42.4215 -42.3902 -21.1009 -21.0993 -21.0473 -20.9993
   -20.9470 -20.9415 -18.6114 -18.5983 -18.4833 -18.3767 -18.2570 -18.2498
     8.9648   9.6673  10.0539  10.5397  11.2006  11.4980  11.6672  12.1122
    12.2378  12.3064  12.3586  12.7352  13.6489  13.6997

          k =-0.0219-0.0875 0.1094 (  3503 PWs)   bands (ev):

   -44.7944 -44.7825 -42.4189 -42.3928 -21.1009 -21.0987 -21.0471 -21.0015
   -20.9474 -20.9397 -18.6160 -18.5977 -18.4804 -18.3771 -18.2580 -18.2475
     9.3662   9.4183  10.1322  10.4590  11.2756  11.5750  11.8579  11.9384
    12.1400  12.1460  12.2791  12.4028  13.7861  13.8174

          k =-0.0109-0.0766 0.0984 (  3505 PWs)   bands (ev):

   -44.7955 -44.7814 -42.4212 -42.3905 -21.1003 -21.0965 -21.0510 -20.9982
   -20.9491 -20.9396 -18.6167 -18.5948 -18.4869 -18.3695 -18.2616 -18.2478
     9.0127   9.8144  10.1616  10.4728  11.2053  11.5571  11.7209  12.0185
    12.0608  12.1416  12.2441  12.4268  13.6439  13.9514

          k = 0.0000-0.0656 0.0875 (  3499 PWs)   bands (ev):

   -44.7979 -44.7790 -42.4265 -42.3852 -21.0988 -21.0935 -21.0571 -20.9912
   -20.9517 -20.9417 -18.6127 -18.5902 -18.5005 -18.3565 -18.2669 -18.2512
     8.6127  10.1169  10.1801  10.5789  11.0240  11.4879  11.5784  11.9793
    12.0130  12.1223  12.3114  12.8251  13.5494  14.0616

          k = 0.1094 0.0219 0.0000 (  3492 PWs)   bands (ev):

   -44.7961 -44.7808 -42.4226 -42.3892 -21.1028 -21.1022 -21.0420 -20.9999
   -20.9450 -20.9438 -18.6040 -18.6013 -18.4787 -18.3877 -18.2528 -18.2510
     8.7528   9.7409   9.8626  10.4754  11.2199  11.4146  11.4260  12.4760
    12.6429  12.7296  12.7308  13.1972  13.3287  13.5384

          k =-0.0219-0.1094 0.1313 (  3489 PWs)   bands (ev):

   -44.7934 -44.7834 -42.4169 -42.3949 -21.1036 -21.1029 -21.0373 -21.0071
   -20.9440 -20.9413 -18.6100 -18.6033 -18.4644 -18.3988 -18.2512 -18.2476
     9.1381   9.6558   9.8313  10.3318  11.3802  11.5035  11.5582  12.1781
    12.5335  12.6220  12.6296  12.9394  13.3610  13.4941

          k =-0.0109-0.0984 0.1203 (  3495 PWs)   bands (ev):

   -44.7918 -44.7850 -42.4133 -42.3986 -21.1032 -21.1021 -21.0363 -21.0111
   -20.9446 -20.9391 -18.6157 -18.6025 -18.4584 -18.4012 -18.2524 -18.2453
     9.4529   9.5768   9.9059  10.1930  11.4229  11.6360  11.7679  11.9040
    12.3913  12.4177  12.4506  12.5891  13.5577  13.5824

          k = 0.0000-0.0875 0.1094 (  3502 PWs)   bands (ev):

   -44.7929 -44.7839 -42.4157 -42.3961 -21.1021 -21.0998 -21.0422 -21.0070
   -20.9464 -20.9383 -18.6185 -18.5994 -18.4681 -18.3889 -18.2562 -18.2451
     9.2898   9.8357   9.9258  10.2526  11.3619  11.6429  11.7941  12.0241
    12.1346  12.2831  12.3197  12.3499  13.7507  13.7537

          k =-0.0109-0.1203 0.1422 (  3482 PWs)   bands (ev):

   -44.7910 -44.7858 -42.4116 -42.4002 -21.1056 -21.1054 -21.0283 -21.0139
   -20.9421 -20.9417 -18.6074 -18.6065 -18.4487 -18.4179 -18.2472 -18.2466
     9.3541   9.5853   9.7516  10.0922  11.4516  11.4557  11.6791  12.1260
    12.7546  12.8660  12.9558  13.0651  13.2004  13.3339

          k = 0.0000-0.1094 0.1313 (  3488 PWs)   bands (ev):

   -44.7893 -44.7874 -42.4080 -42.4039 -21.1048 -21.1046 -21.0264 -21.0183
   -20.9426 -20.9401 -18.6118 -18.6058 -18.4412 -18.4220 -18.2484 -18.2454
     9.5168   9.5953   9.8606   9.9476  11.4688  11.5841  11.8304  11.8432
    12.6368  12.6548  12.7315  12.8201  13.3688  13.3813

          k = 0.0875 0.0438 0.0000 (  3510 PWs)   bands (ev):

   -44.7997 -44.7773 -42.4302 -42.3814 -21.0979 -21.0942 -21.0570 -20.9884
   -20.9513 -20.9451 -18.6044 -18.5908 -18.5055 -18.3553 -18.2659 -18.2560
     8.3187  10.0718  10.1919  10.6458  10.9105  11.4369  11.4602  12.1138
    12.1201  12.3348  12.4377  13.2675  13.6623  13.7868

          k =-0.0438-0.0875 0.1313 (  3502 PWs)   bands (ev):

   -44.7970 -44.7799 -42.4245 -42.3872 -21.0997 -21.0963 -21.0526 -20.9950
   -20.9490 -20.9419 -18.6113 -18.5950 -18.4923 -18.3660 -18.2617 -18.2509
     8.7425   9.8853  10.1301  10.5780  11.1227  11.5161  11.6007  12.0668
    12.1254  12.2001  12.2933  12.7894  13.6257  13.8638

          k =-0.0328-0.0766 0.1203 (  3504 PWs)   bands (ev):

   -44.7950 -44.7818 -42.4203 -42.3914 -21.1004 -21.0977 -21.0493 -20.9997
   -20.9476 -20.9403 -18.6149 -18.5977 -18.4839 -18.3729 -18.2590 -18.2486
     9.1731   9.5674  10.1721  10.4960  11.2871  11.5782  11.7648  11.9859
    12.0709  12.1596  12.2055  12.3918  13.7466  13.9498

          k =-0.0328-0.0984 0.1422 (  3491 PWs)   bands (ev):

   -44.7954 -44.7814 -42.4211 -42.3906 -21.1018 -21.0999 -21.0448 -21.0014
   -20.9458 -20.9418 -18.6101 -18.6007 -18.4772 -18.3834 -18.2555 -18.2493
     8.9011   9.8154   9.9128  10.4818  11.2480  11.5276  11.5529  12.2410
    12.3368  12.3797  12.3910  12.9071  13.5427  13.5986

          k =-0.0219-0.0875 0.1313 (  3501 PWs)   bands (ev):

   -44.7930 -44.7838 -42.4159 -42.3959 -21.1023 -21.1007 -21.0401 -21.0085
   -20.9445 -20.9399 -18.6144 -18.6035 -18.4637 -18.3942 -18.2533 -18.2468
     9.2783   9.6708   9.9317  10.3241  11.4337  11.6106  11.7350  12.0429
    12.2405  12.2879  12.2934  12.5362  13.6269  13.7442

          k =-0.0109-0.0766 0.1203 (  3499 PWs)   bands (ev):

   -44.7924 -44.7844 -42.4147 -42.3972 -21.1021 -21.1002 -21.0400 -21.0098
   -20.9448 -20.9390 -18.6167 -18.6031 -18.4619 -18.3944 -18.2540 -18.2460
     9.4055   9.6382   9.9815  10.2563  11.4760  11.6735  11.8500  11.9797
    12.1503  12.1981  12.2452  12.3101  13.7804  13.8371

          k = 0.0000-0.0656 0.1094 (  3505 PWs)   bands (ev):

   -44.7943 -44.7825 -42.4188 -42.3930 -21.1014 -21.0985 -21.0456 -21.0037
   -20.9465 -20.9396 -18.6159 -18.5998 -18.4742 -18.3824 -18.2573 -18.2470
     9.0993   9.8731   9.9496  10.3983  11.3391  11.6321  11.7051  12.1007
    12.1117  12.1631  12.2277  12.4986  13.6154  13.9649

          k =-0.0109-0.0984 0.1422 (  3487 PWs)   bands (ev):

   -44.7908 -44.7860 -42.4111 -42.4007 -21.1038 -21.1032 -21.0308 -21.0160
   -20.9421 -20.9406 -18.6113 -18.6079 -18.4461 -18.4142 -18.2488 -18.2467
     9.4435   9.6542   9.8111  10.1244  11.5583  11.5899  11.6715  11.9857
    12.4323  12.5085  12.5320  12.6481  13.5185  13.5207

          k = 0.0000-0.0875 0.1313 (  3486 PWs)   bands (ev):

   -44.7899 -44.7869 -42.4093 -42.4026 -21.1031 -21.1024 -21.0305 -21.0184
   -20.9425 -20.9395 -18.6145 -18.6074 -18.4426 -18.4150 -18.2498 -18.2459
     9.5446   9.6843   9.8869  10.0371  11.5801  11.7589  11.8188  11.8247
    12.3123  12.3389  12.3403  12.3955  13.6783  13.6834

          k =-0.0109-0.0766 0.1422 (  3489 PWs)   bands (ev):

   -44.7904 -44.7864 -42.4103 -42.4015 -21.1026 -21.1017 -21.0322 -21.0178
   -20.9422 -20.9397 -18.6143 -18.6085 -18.4439 -18.4124 -18.2500 -18.2465
     9.5236   9.7080   9.8704  10.1070  11.6484  11.7517  11.7961  11.9536
    12.1818  12.2304  12.2452  12.2944  13.7584  13.8705

     the Fermi energy is    12.1870 ev

!    total energy              =    -469.07397078 Ry
     Harris-Foulkes estimate   =    -469.07397078 Ry
     estimated scf accuracy    <          5.7E-11 Ry

     The total energy is the sum of the following terms:

     one-electron contribution =    -150.74234338 Ry
     hartree contribution      =      89.49840596 Ry
     xc contribution           =     -65.24255188 Ry
     ewald contribution        =    -342.58472813 Ry
     smearing contrib. (-TS)   =      -0.00275334 Ry

     convergence has been achieved in  49 iterations

     Forces acting on atoms (Ry/au):

     atom    1 type  2   force =     0.00000000   -0.00000000   -0.00000000
     atom    2 type  2   force =     0.00000000    0.00000000    0.00000000
     atom    3 type  1   force =     0.00000000    0.00000000    0.00000000
     atom    4 type  1   force =     0.00000000   -0.00000000   -0.00000000

     Total force =     0.000000     Total SCF correction =     0.000000


     entering subroutine stress ...

          total   stress  (Ry/bohr**3)                   (kbar)     P= -197.70
  -0.00134391   0.00000000   0.00000000       -197.70      0.00      0.00
   0.00000000  -0.00134391   0.00000000          0.00   -197.70      0.00
   0.00000000   0.00000000  -0.00134391          0.00      0.00   -197.70


     BFGS Geometry Optimization

     number of scf cycles    =   1
     number of bfgs steps    =   0

     enthalpy new            =    -469.0739707772 Ry

     new trust radius        =       0.1627559553 bohr
     new conv_thr            =            1.0E-10 Ry

     new unit-cell volume =    529.50541 a.u.^3 (    78.46461 Ang^3 )

CELL_PARAMETERS (alat=  1.88972599)
   0.000000000   3.397931608   3.397931608
   3.397931608   0.000000000   3.397931608
   3.397931608   3.397931608   0.000000000

ATOMIC_POSITIONS (angstrom)
Ti       1.698965804   1.698965804   1.698965804
Ti       3.397931608   3.397931608   3.397931608
Nb       5.096897412   5.096897412   5.096897412
Nb       6.795863216   6.795863216   6.795863216


     NEW-OLD atomic charge density approx. for the potential
     extrapolated charge   44.81828, renormalised to   50.00000

     total cpu time spent up to now is      865.4 secs

     per-process dynamical memory:   130.8 Mb

     Self-consistent Calculation

     iteration #  1     ecut=    50.00 Ry     beta=0.60
     Davidson diagonalization with overlap
     c_bands:  1 eigenvalues not converged
     c_bands:  1 eigenvalues not converged
     ethr =  1.00E-06,  avg # of iterations = 14.7

     total cpu time spent up to now is      923.1 secs

     total energy              =    -439.71748542 Ry
     Harris-Foulkes estimate   =    -480.43252693 Ry
     estimated scf accuracy    <      33.35536779 Ry

     iteration #  2     ecut=    50.00 Ry     beta=0.60
     Davidson diagonalization with overlap
     ethr =  1.00E-02,  avg # of iterations =  6.7

     total cpu time spent up to now is      955.2 secs

     total energy              =    -454.72264365 Ry
     Harris-Foulkes estimate   =    -509.09456702 Ry
     estimated scf accuracy    <     175.32895099 Ry

     iteration #  3     ecut=    50.00 Ry     beta=0.60
     Davidson diagonalization with overlap
     ethr =  1.00E-02,  avg # of iterations =  3.7

     total cpu time spent up to now is      978.2 secs

     total energy              =    -471.25376910 Ry
     Harris-Foulkes estimate   =    -474.03253182 Ry
     estimated scf accuracy    <      13.68040996 Ry

     iteration #  4     ecut=    50.00 Ry     beta=0.60
     Davidson diagonalization with overlap
     ethr =  1.00E-02,  avg # of iterations =  1.0

     total cpu time spent up to now is      991.6 secs

     total energy              =    -468.60860686 Ry
     Harris-Foulkes estimate   =    -471.41050196 Ry
     estimated scf accuracy    <       9.13916517 Ry

     iteration #  5     ecut=    50.00 Ry     beta=0.60
     Davidson diagonalization with overlap
     ethr =  1.00E-02,  avg # of iterations =  3.1

     total cpu time spent up to now is     1008.8 secs

     total energy              =    -469.79051943 Ry
     Harris-Foulkes estimate   =    -469.29909121 Ry
     estimated scf accuracy    <       1.04393261 Ry

     iteration #  6     ecut=    50.00 Ry     beta=0.60
     Davidson diagonalization with overlap
     ethr =  2.09E-03,  avg # of iterations =  4.0

     total cpu time spent up to now is     1026.9 secs

     total energy              =    -469.96238379 Ry
     Harris-Foulkes estimate   =    -470.06394377 Ry
     estimated scf accuracy    <       4.34099342 Ry

     iteration #  7     ecut=    50.00 Ry     beta=0.60
     Davidson diagonalization with overlap
     ethr =  2.09E-03,  avg # of iterations =  1.0

     total cpu time spent up to now is     1040.1 secs

     total energy              =    -469.62982973 Ry
     Harris-Foulkes estimate   =    -469.96621053 Ry
     estimated scf accuracy    <       4.14379500 Ry

     iteration #  8     ecut=    50.00 Ry     beta=0.60
     Davidson diagonalization with overlap
     ethr =  2.09E-03,  avg # of iterations =  1.0

     total cpu time spent up to now is     1053.6 secs

     total energy              =    -468.99921494 Ry
     Harris-Foulkes estimate   =    -469.64100415 Ry
     estimated scf accuracy    <       3.27932498 Ry

     iteration #  9     ecut=    50.00 Ry     beta=0.60
     Davidson diagonalization with overlap
     ethr =  2.09E-03,  avg # of iterations =  3.5

     total cpu time spent up to now is     1070.5 secs

     total energy              =    -469.18836112 Ry
     Harris-Foulkes estimate   =    -469.18095777 Ry
     estimated scf accuracy    <       0.28326073 Ry

     iteration # 10     ecut=    50.00 Ry     beta=0.60
     Davidson diagonalization with overlap
     ethr =  5.67E-04,  avg # of iterations =  2.3

     total cpu time spent up to now is     1084.5 secs

     total energy              =    -468.91860183 Ry
     Harris-Foulkes estimate   =    -469.19479720 Ry
     estimated scf accuracy    <       0.38768521 Ry

     iteration # 11     ecut=    50.00 Ry     beta=0.60
     Davidson diagonalization with overlap
     ethr =  5.67E-04,  avg # of iterations =  5.4

     total cpu time spent up to now is     1111.5 secs

     total energy              =    -469.81948455 Ry
     Harris-Foulkes estimate   =    -469.84364672 Ry
     estimated scf accuracy    <      10.36173806 Ry

     iteration # 12     ecut=    50.00 Ry     beta=0.60
     Davidson diagonalization with overlap
     ethr =  5.67E-04,  avg # of iterations =  1.0

     total cpu time spent up to now is     1124.8 secs

     total energy              =    -468.48473364 Ry
     Harris-Foulkes estimate   =    -469.82017638 Ry
     estimated scf accuracy    <      10.09703252 Ry

     iteration # 13     ecut=    50.00 Ry     beta=0.60
     Davidson diagonalization with overlap
     ethr =  5.67E-04,  avg # of iterations =  5.1

     total cpu time spent up to now is     1148.2 secs

     total energy              =    -469.14652275 Ry
     Harris-Foulkes estimate   =    -469.14809274 Ry
     estimated scf accuracy    <       0.07107947 Ry

     iteration # 14     ecut=    50.00 Ry     beta=0.60
     Davidson diagonalization with overlap
     ethr =  1.42E-04,  avg # of iterations =  1.3

     total cpu time spent up to now is     1161.7 secs

     total energy              =    -469.20264314 Ry
     Harris-Foulkes estimate   =    -469.14972939 Ry
     estimated scf accuracy    <       0.04186367 Ry

     iteration # 15     ecut=    50.00 Ry     beta=0.60
     Davidson diagonalization with overlap
     ethr =  8.37E-05,  avg # of iterations =  7.2

     total cpu time spent up to now is     1192.2 secs

     total energy              =    -465.96488541 Ry
     Harris-Foulkes estimate   =    -470.48378356 Ry
     estimated scf accuracy    <      15.82759689 Ry

     iteration # 16     ecut=    50.00 Ry     beta=0.60
     Davidson diagonalization with overlap
     ethr =  8.37E-05,  avg # of iterations = 11.9

     total cpu time spent up to now is     1230.2 secs

     total energy              =    -468.41428817 Ry
     Harris-Foulkes estimate   =    -470.01465879 Ry
     estimated scf accuracy    <       4.94692882 Ry

     iteration # 17     ecut=    50.00 Ry     beta=0.60
     Davidson diagonalization with overlap
     ethr =  8.37E-05,  avg # of iterations =  6.0

     total cpu time spent up to now is     1260.0 secs

     total energy              =    -469.19233909 Ry
     Harris-Foulkes estimate   =    -469.27935981 Ry
     estimated scf accuracy    <       2.19772990 Ry

     iteration # 18     ecut=    50.00 Ry     beta=0.60
     Davidson diagonalization with overlap
     ethr =  8.37E-05,  avg # of iterations =  4.2

     total cpu time spent up to now is     1278.3 secs

     total energy              =    -469.17259503 Ry
     Harris-Foulkes estimate   =    -469.20507201 Ry
     estimated scf accuracy    <       1.09640835 Ry

     iteration # 19     ecut=    50.00 Ry     beta=0.60
     Davidson diagonalization with overlap
     ethr =  8.37E-05,  avg # of iterations =  1.4

     total cpu time spent up to now is     1291.8 secs

     total energy              =    -469.04224926 Ry
     Harris-Foulkes estimate   =    -469.17525796 Ry
     estimated scf accuracy    <       0.76242228 Ry

     iteration # 20     ecut=    50.00 Ry     beta=0.60
     Davidson diagonalization with overlap
     ethr =  8.37E-05,  avg # of iterations =  5.3

     total cpu time spent up to now is     1316.9 secs

     total energy              =    -469.14245984 Ry
     Harris-Foulkes estimate   =    -469.14954671 Ry
     estimated scf accuracy    <       0.16101550 Ry

     iteration # 21     ecut=    50.00 Ry     beta=0.60
     Davidson diagonalization with overlap
     ethr =  8.37E-05,  avg # of iterations =  1.0

     total cpu time spent up to now is     1330.3 secs

     total energy              =    -469.12881233 Ry
     Harris-Foulkes estimate   =    -469.14313898 Ry
     estimated scf accuracy    <       0.10011163 Ry

     iteration # 22     ecut=    50.00 Ry     beta=0.60
     Davidson diagonalization with overlap
     ethr =  8.37E-05,  avg # of iterations =  3.7

     total cpu time spent up to now is     1347.5 secs

     total energy              =    -469.13765313 Ry
     Harris-Foulkes estimate   =    -469.13756367 Ry
     estimated scf accuracy    <       0.00203621 Ry

     iteration # 23     ecut=    50.00 Ry     beta=0.60
     Davidson diagonalization with overlap
     ethr =  4.07E-06,  avg # of iterations =  5.8

     total cpu time spent up to now is     1365.6 secs

     total energy              =    -469.13757226 Ry
     Harris-Foulkes estimate   =    -469.13779494 Ry
     estimated scf accuracy    <       0.00351988 Ry

     iteration # 24     ecut=    50.00 Ry     beta=0.60
     Davidson diagonalization with overlap
     ethr =  4.07E-06,  avg # of iterations =  1.0

     total cpu time spent up to now is     1379.0 secs

     total energy              =    -469.13767459 Ry
     Harris-Foulkes estimate   =    -469.13760252 Ry
     estimated scf accuracy    <       0.00195076 Ry

     iteration # 25     ecut=    50.00 Ry     beta=0.60
     Davidson diagonalization with overlap
     ethr =  3.90E-06,  avg # of iterations =  1.0

     total cpu time spent up to now is     1392.2 secs

     total energy              =    -469.13739944 Ry
     Harris-Foulkes estimate   =    -469.13768693 Ry
     estimated scf accuracy    <       0.00287047 Ry

     iteration # 26     ecut=    50.00 Ry     beta=0.60
     Davidson diagonalization with overlap
     ethr =  3.90E-06,  avg # of iterations =  1.0

     total cpu time spent up to now is     1405.7 secs

     total energy              =    -469.13746696 Ry
     Harris-Foulkes estimate   =    -469.13747043 Ry
     estimated scf accuracy    <       0.00071753 Ry

     iteration # 27     ecut=    50.00 Ry     beta=0.60
     Davidson diagonalization with overlap
     ethr =  1.44E-06,  avg # of iterations =  1.1

     total cpu time spent up to now is     1419.1 secs

     total energy              =    -469.13749499 Ry
     Harris-Foulkes estimate   =    -469.13747635 Ry
     estimated scf accuracy    <       0.00063111 Ry

     iteration # 28     ecut=    50.00 Ry     beta=0.60
     Davidson diagonalization with overlap
     ethr =  1.26E-06,  avg # of iterations =  1.0

     total cpu time spent up to now is     1432.4 secs

     total energy              =    -469.13752537 Ry
     Harris-Foulkes estimate   =    -469.13749943 Ry
     estimated scf accuracy    <       0.00074760 Ry

     iteration # 29     ecut=    50.00 Ry     beta=0.60
     Davidson diagonalization with overlap
     ethr =  1.26E-06,  avg # of iterations =  1.0

     total cpu time spent up to now is     1445.8 secs

     total energy              =    -469.13735876 Ry
     Harris-Foulkes estimate   =    -469.13752866 Ry
     estimated scf accuracy    <       0.00101145 Ry

     iteration # 30     ecut=    50.00 Ry     beta=0.60
     Davidson diagonalization with overlap
     ethr =  1.26E-06,  avg # of iterations =  3.6

     total cpu time spent up to now is     1461.1 secs

     total energy              =    -469.13745328 Ry
     Harris-Foulkes estimate   =    -469.13745939 Ry
     estimated scf accuracy    <       0.00002130 Ry

     iteration # 31     ecut=    50.00 Ry     beta=0.60
     Davidson diagonalization with overlap
     ethr =  4.26E-08,  avg # of iterations =  4.6

     total cpu time spent up to now is     1480.7 secs

     total energy              =    -469.13746897 Ry
     Harris-Foulkes estimate   =    -469.13747828 Ry
     estimated scf accuracy    <       0.00004809 Ry

     iteration # 32     ecut=    50.00 Ry     beta=0.60
     Davidson diagonalization with overlap
     ethr =  4.26E-08,  avg # of iterations =  3.9

     total cpu time spent up to now is     1497.3 secs

     total energy              =    -469.13747676 Ry
     Harris-Foulkes estimate   =    -469.13747521 Ry
     estimated scf accuracy    <       0.00000661 Ry

     iteration # 33     ecut=    50.00 Ry     beta=0.60
     Davidson diagonalization with overlap
     ethr =  1.32E-08,  avg # of iterations =  3.7

     total cpu time spent up to now is     1513.9 secs

     total energy              =    -469.13747923 Ry
     Harris-Foulkes estimate   =    -469.13747837 Ry
     estimated scf accuracy    <       0.00004034 Ry

     iteration # 34     ecut=    50.00 Ry     beta=0.60
     Davidson diagonalization with overlap
     ethr =  1.32E-08,  avg # of iterations =  2.6

     total cpu time spent up to now is     1528.3 secs

     total energy              =    -469.13747322 Ry
     Harris-Foulkes estimate   =    -469.13747948 Ry
     estimated scf accuracy    <       0.00005662 Ry

     iteration # 35     ecut=    50.00 Ry     beta=0.60
     Davidson diagonalization with overlap
     ethr =  1.32E-08,  avg # of iterations =  3.7

     total cpu time spent up to now is     1544.4 secs

     total energy              =    -469.13747420 Ry
     Harris-Foulkes estimate   =    -469.13747507 Ry
     estimated scf accuracy    <       0.00000663 Ry

     iteration # 36     ecut=    50.00 Ry     beta=0.60
     Davidson diagonalization with overlap
     ethr =  1.32E-08,  avg # of iterations =  2.5

     total cpu time spent up to now is     1559.0 secs

     total energy              =    -469.13747468 Ry
     Harris-Foulkes estimate   =    -469.13747475 Ry
     estimated scf accuracy    <       0.00000015 Ry

     iteration # 37     ecut=    50.00 Ry     beta=0.60
     Davidson diagonalization with overlap
     ethr =  2.98E-10,  avg # of iterations =  5.2

     total cpu time spent up to now is     1581.8 secs

     total energy              =    -469.13747485 Ry
     Harris-Foulkes estimate   =    -469.13747499 Ry
     estimated scf accuracy    <       0.00000186 Ry

     iteration # 38     ecut=    50.00 Ry     beta=0.60
     Davidson diagonalization with overlap
     ethr =  2.98E-10,  avg # of iterations =  3.5

     total cpu time spent up to now is     1597.4 secs

     total energy              =    -469.13747483 Ry
     Harris-Foulkes estimate   =    -469.13747488 Ry
     estimated scf accuracy    <       0.00000055 Ry

     iteration # 39     ecut=    50.00 Ry     beta=0.60
     Davidson diagonalization with overlap
     ethr =  2.98E-10,  avg # of iterations =  3.4

     total cpu time spent up to now is     1613.4 secs

     total energy              =    -469.13747486 Ry
     Harris-Foulkes estimate   =    -469.13747486 Ry
     estimated scf accuracy    <       0.00000004 Ry

     iteration # 40     ecut=    50.00 Ry     beta=0.60
     Davidson diagonalization with overlap
     ethr =  8.23E-11,  avg # of iterations =  3.9

     total cpu time spent up to now is     1629.0 secs

     total energy              =    -469.13747486 Ry
     Harris-Foulkes estimate   =    -469.13747486 Ry
     estimated scf accuracy    <          1.8E-09 Ry

     iteration # 41     ecut=    50.00 Ry     beta=0.60
     Davidson diagonalization with overlap
     c_bands:  1 eigenvalues not converged
     ethr =  3.65E-12,  avg # of iterations =  4.8

     total cpu time spent up to now is     1648.1 secs

     End of self-consistent calculation

          k = 0.0000 0.0000 0.0000 (  3479 PWs)   bands (ev):

   -42.9447 -42.8751 -40.6161 -40.4690 -19.2438 -19.2438 -19.2438 -19.0942
   -19.0942 -19.0942 -16.7883 -16.7883 -16.7883 -16.4236 -16.4236 -16.4236
     8.0789  11.2870  11.2870  12.8831  12.8831  12.8831  12.9819  12.9819
    12.9819  14.4767  14.4767  14.4767  16.8473  16.8473

          k = 0.0113 0.0113-0.0113 (  3509 PWs)   bands (ev):

   -42.9439 -42.8759 -40.6146 -40.4707 -19.2452 -19.2452 -19.2444 -19.0937
   -19.0930 -19.0930 -16.7903 -16.7903 -16.7865 -16.4258 -16.4213 -16.4213
     8.1542  11.3277  11.3277  12.7134  12.8402  12.8402  13.0386  13.0386
    13.0528  14.4491  14.4491  14.5412  16.2177  16.2177

          k = 0.0226 0.0226-0.0226 (  3521 PWs)   bands (ev):

   -42.9416 -42.8780 -40.6102 -40.4755 -19.2491 -19.2491 -19.2456 -19.0923
   -19.0898 -19.0898 -16.7957 -16.7957 -16.7825 -16.4309 -16.4151 -16.4151
     8.3755  11.4463  11.4463  12.5022  12.7967  12.7967  12.9778  13.1199
    13.1199  14.3624  14.3624  14.7397  16.1818  16.1819

          k = 0.0340 0.0340-0.0340 (  3521 PWs)   bands (ev):

   -42.9380 -42.8812 -40.6035 -40.4828 -19.2542 -19.2542 -19.2465 -19.0910
   -19.0855 -19.0855 -16.8030 -16.8030 -16.7791 -16.4361 -16.4066 -16.4066
     8.7295  11.6322  11.6322  12.3661  12.6890  12.7909  12.7909  13.1775
    13.1775  14.2120  14.2120  15.0761  15.8501  16.1505

          k = 0.0453 0.0453-0.0453 (  3506 PWs)   bands (ev):

   -42.9337 -42.8852 -40.5952 -40.4916 -19.2593 -19.2593 -19.2459 -19.0912
   -19.0812 -19.0812 -16.8105 -16.8105 -16.7777 -16.4392 -16.3979 -16.3979
     9.1951  11.8649  11.8649  12.2199  12.3645  12.8289  12.8289  13.1889
    13.1889  14.0086  14.0086  14.9776  15.5431  16.1446

          k = 0.0566 0.0566-0.0566 (  3489 PWs)   bands (ev):

   -42.9295 -42.8891 -40.5871 -40.5002 -19.2634 -19.2634 -19.2437 -19.0930
   -19.0779 -19.0779 -16.8165 -16.8165 -16.7780 -16.4403 -16.3909 -16.3909
     9.7451  11.6439  12.1082  12.1082  12.5214  12.9008  12.9008  13.1471
    13.1471  13.7906  13.7906  14.1795  16.1203  16.1653

          k = 0.0679 0.0679-0.0679 (  3501 PWs)   bands (ev):

   -42.9268 -42.8917 -40.5817 -40.5059 -19.2656 -19.2656 -19.2416 -19.0950
   -19.0760 -19.0760 -16.8198 -16.8198 -16.7787 -16.4405 -16.3870 -16.3870
    10.3398  11.0285  12.2892  12.2892  12.8193  12.9640  12.9640  13.0897
    13.0897  13.5449  13.6317  13.6317  16.1910  16.1910

          k = 0.0226 0.0000 0.0000 (  3523 PWs)   bands (ev):

   -42.9437 -42.8761 -40.6141 -40.4712 -19.2471 -19.2471 -19.2418 -19.0955
   -19.0917 -19.0917 -16.7922 -16.7922 -16.7831 -16.4305 -16.4187 -16.4187
     8.1793  11.3378  11.3429  12.7624  12.7894  12.7894  12.8390  13.1649
    13.1649  14.4667  14.4667  14.5114  16.8189  16.8437

          k = 0.0340 0.0113-0.0113 (  3522 PWs)   bands (ev):

   -42.9418 -42.8778 -40.6107 -40.4750 -19.2513 -19.2509 -19.2407 -19.0961
   -19.0883 -19.0883 -16.7975 -16.7974 -16.7772 -16.4376 -16.4130 -16.4122
     8.3518  11.4228  11.4375  12.5467  12.6639  12.7579  12.8757  13.2354
    13.2925  14.3896  14.4254  14.6552  16.0873  16.2578

          k = 0.0453 0.0226-0.0226 (  3519 PWs)   bands (ev):

   -42.9386 -42.8807 -40.6046 -40.4815 -19.2566 -19.2556 -19.2410 -19.0964
   -19.0840 -19.0835 -16.8055 -16.8048 -16.7707 -16.4445 -16.4051 -16.4036
     8.6609  11.5727  11.6019  12.3590  12.4986  12.7581  12.9472  13.1700
    13.3881  14.2508  14.3094  14.9463  16.0165  16.1437

          k = 0.0566 0.0340-0.0340 (  3515 PWs)   bands (ev):

   -42.9345 -42.8844 -40.5967 -40.4900 -19.2617 -19.2602 -19.2411 -19.0974
   -19.0797 -19.0782 -16.8153 -16.8122 -16.7654 -16.4496 -16.3960 -16.3949
     9.0873  11.7601  11.8178  12.2184  12.3057  12.7958  13.0068  13.0644
    13.4194  14.0679  14.1172  15.2823  15.3706  15.9901

          k = 0.0679 0.0453-0.0453 (  3504 PWs)   bands (ev):

   -42.9302 -42.8885 -40.5883 -40.4990 -19.2656 -19.2643 -19.2399 -19.0997
   -19.0764 -19.0736 -16.8245 -16.8181 -16.7622 -16.4522 -16.3881 -16.3875
[...]
   -16.8973 -16.8973 -14.8402 -14.8402 -14.6838 -14.4159 -14.2087 -14.2087
    11.3465  12.8811  13.1696  13.6789  13.8085  14.4776  14.4776  16.3685
    16.3685  16.4190  16.4190  16.9435  17.0786  17.9667

          k = 0.1056 0.0117-0.0117 (  2843 PWs)   bands (ev):

   -40.7675 -40.7178 -38.4788 -38.3752 -17.2141 -17.2133 -17.0944 -16.9816
   -16.8915 -16.8890 -14.8524 -14.8468 -14.6579 -14.4379 -14.1991 -14.1977
    11.7390  12.7652  12.9784  13.8183  13.9369  14.5160  14.5514  16.1650
    16.2958  16.5277  16.5515  16.8547  17.4189  17.4807

          k = 0.1173 0.0235-0.0235 (  2839 PWs)   bands (ev):

   -40.7607 -40.7241 -38.4658 -38.3890 -17.2176 -17.2144 -17.0896 -16.9968
   -16.8883 -16.8793 -14.8715 -14.8510 -14.6319 -14.4513 -14.1942 -14.1884
    12.1680  12.6830  12.9018  13.8048  14.1975  14.5878  14.7285  15.7269
    16.1181  16.3896  16.4241  16.8858  17.0605  17.5669

          k =-0.0235-0.1173 0.1173 (  2847 PWs)   bands (ev):

   -40.7553 -40.7293 -38.4552 -38.4001 -17.2163 -17.2110 -17.0890 -17.0106
   -16.8884 -16.8713 -14.8903 -14.8522 -14.6151 -14.4528 -14.1950 -14.1823
    12.5049  12.6430  12.9888  13.7308  14.3753  14.7026  15.0136  15.3339
    15.9366  16.1010  16.1124  16.4250  17.3283  17.5377

          k =-0.0117-0.1056 0.1056 (  2851 PWs)   bands (ev):

   -40.7548 -40.7297 -38.4544 -38.4009 -17.2103 -17.2062 -17.0975 -17.0120
   -16.8916 -16.8671 -14.9028 -14.8498 -14.6178 -14.4381 -14.2014 -14.1802
    12.4006  12.9113  13.1972  13.6176  14.4020  14.7865  15.1130  15.3983
    15.7100  15.7807  15.8873  16.0718  17.6171  17.6674

          k =-0.0000-0.0939 0.0939 (  2836 PWs)   bands (ev):

   -40.7597 -40.7250 -38.4642 -38.3907 -17.2019 -17.2009 -17.1139 -16.9983
   -16.8975 -16.8684 -14.9048 -14.8444 -14.6403 -14.4104 -14.2120 -14.1833
    12.1810  13.1272  13.3619  13.6213  14.2727  14.7352  15.0756  15.4370
    15.6107  15.6349  15.8444  15.9705  17.4517  17.9348

          k = 0.1173 0.0000 0.0000 (  2838 PWs)   bands (ev):

   -40.7616 -40.7232 -38.4675 -38.3872 -17.2228 -17.2228 -17.0790 -16.9931
   -16.8853 -16.8853 -14.8528 -14.8528 -14.6324 -14.4690 -14.1892 -14.1892
    12.0654  12.6086  12.7942  13.7581  14.2038  14.5288  14.5288  16.2274
    16.4587  16.4587  16.8779  16.8779  17.4360  17.4916

          k = 0.1291 0.0117-0.0117 (  2846 PWs)   bands (ev):

   -40.7551 -40.7295 -38.4544 -38.4008 -17.2270 -17.2259 -17.0683 -17.0084
   -16.8820 -16.8793 -14.8628 -14.8566 -14.6040 -14.4919 -14.1840 -14.1824
    12.3783  12.5337  12.7608  13.6533  14.4730  14.5828  14.6068  15.7454
    16.4182  16.6586  16.8102  16.9001  17.2288  17.3431

          k =-0.0117-0.1291 0.1291 (  2845 PWs)   bands (ev):

   -40.7490 -40.7354 -38.4422 -38.4133 -17.2261 -17.2221 -17.0634 -17.0252
   -16.8820 -16.8724 -14.8793 -14.8574 -14.5800 -14.5017 -14.1846 -14.1782
    12.4668  12.5885  12.9893  13.4937  14.5542  14.7942  14.7946  15.2971
    16.2669  16.4405  16.5866  16.9029  17.0184  17.2279

          k =-0.0000-0.1173 0.1173 (  2850 PWs)   bands (ev):

   -40.7489 -40.7355 -38.4422 -38.4134 -17.2201 -17.2144 -17.0746 -17.0271
   -16.8854 -16.8675 -14.8949 -14.8550 -14.5861 -14.4801 -14.1908 -14.1772
    12.4447  12.7531  13.2458  13.3703  14.5377  14.9133  15.0337  15.0790
    16.0830  16.0862  16.1638  16.4851  17.3187  17.3440

          k = 0.1408 0.0000 0.0000 (  2834 PWs)   bands (ev):

   -40.7487 -40.7357 -38.4414 -38.4141 -17.2320 -17.2320 -17.0511 -17.0213
   -16.8786 -16.8786 -14.8597 -14.8597 -14.5781 -14.5233 -14.1785 -14.1785
    12.4365  12.4490  12.9228  13.4568  14.5653  14.5653  14.8191  15.5040
    16.6217  16.6217  16.8880  16.8880  17.4493  17.4493

          k =-0.0000-0.1408 0.1408 (  2834 PWs)   bands (ev):

   -40.7429 -40.7414 -38.4295 -38.4262 -17.2316 -17.2304 -17.0415 -17.0358
   -16.8786 -16.8758 -14.8664 -14.8600 -14.5548 -14.5407 -14.1787 -14.1770
    12.4366  12.4698  13.2094  13.2243  14.5751  14.6302  15.1168  15.1227
    16.5819  16.6629  16.7315  16.8730  17.2931  17.3118

          k = 0.0469 0.0235 0.0000 (  2826 PWs)   bands (ev):

   -40.7908 -40.6969 -38.5216 -38.3281 -17.1687 -17.1634 -17.1400 -16.9431
   -16.9275 -16.9220 -14.8155 -14.8075 -14.7612 -14.3194 -14.2613 -14.2521
    10.2722  12.9919  13.0190  14.1425  14.1483  14.5562  14.5831  15.2976
    15.3189  16.2104  16.3327  16.7863  18.1241  18.4939

          k = 0.0587 0.0352-0.0117 (  2835 PWs)   bands (ev):

   -40.7851 -40.7019 -38.5117 -38.3393 -17.1786 -17.1706 -17.1406 -16.9454
   -16.9215 -16.9109 -14.8325 -14.8160 -14.7450 -14.3326 -14.2513 -14.2363
    10.6488  13.1582  13.2406  13.9155  14.0025  14.5366  14.6566  15.2661
    15.4336  16.0373  16.1932  17.1414  18.0277  18.0347

          k = 0.0704 0.0469-0.0235 (  2840 PWs)   bands (ev):

   -40.7782 -40.7080 -38.4994 -38.3530 -17.1859 -17.1776 -17.1408 -16.9505
   -16.9151 -16.9006 -14.8502 -14.8252 -14.7315 -14.3409 -14.2398 -14.2226
    11.1322  13.3245  13.5102  13.7264  13.9318  14.5640  14.7432  15.1338
    15.4609  15.8237  15.9564  17.0905  17.6609  18.0315

          k = 0.0821 0.0587-0.0352 (  2842 PWs)   bands (ev):

   -40.7715 -40.7141 -38.4871 -38.3664 -17.1899 -17.1836 -17.1381 -16.9581
   -16.9099 -16.8932 -14.8647 -14.8327 -14.7226 -14.3445 -14.2297 -14.2128
    11.6832  13.2590  13.5991  13.7836  14.0590  14.6305  14.8424  15.0262
    15.3745  15.6025  15.7116  16.2487  18.0933  18.2868

          k =-0.0587-0.0821 0.1056 (  2841 PWs)   bands (ev):

   -40.7670 -40.7182 -38.4788 -38.3754 -17.1906 -17.1880 -17.1345 -16.9645
   -16.9070 -16.8896 -14.8726 -14.8369 -14.7182 -14.3457 -14.2238 -14.2080
    12.2538  12.8215  13.6714  13.9565  14.2693  14.6869  14.9580  14.9926
    15.2631  15.4535  15.5487  15.6283  18.1955  18.2525

          k = 0.0704 0.0235 0.0000 (  2838 PWs)   bands (ev):

   -40.7829 -40.7038 -38.5077 -38.3438 -17.1864 -17.1830 -17.1268 -16.9533
   -16.9135 -16.9078 -14.8333 -14.8235 -14.7272 -14.3597 -14.2367 -14.2290
    10.7775  13.1123  13.3081  13.6942  13.8862  14.4995  14.5035  15.7346
    15.7349  16.1524  16.2674  17.0456  17.7116  18.2399

          k = 0.0821 0.0352-0.0117 (  2838 PWs)   bands (ev):

   -40.7765 -40.7096 -38.4960 -38.3567 -17.1946 -17.1898 -17.1248 -16.9613
   -16.9072 -16.8963 -14.8525 -14.8320 -14.7055 -14.3742 -14.2266 -14.2142
    11.2076  13.1423  13.4792  13.5490  13.8716  14.5363  14.6220  15.6857
    15.8118  15.9668  16.0792  17.4421  17.4810  17.6617

          k = 0.0939 0.0469-0.0235 (  2839 PWs)   bands (ev):

   -40.7696 -40.7158 -38.4832 -38.3706 -17.1990 -17.1940 -17.1230 -16.9723
   -16.9020 -16.8864 -14.8715 -14.8394 -14.6872 -14.3826 -14.2179 -14.2029
    11.7042  13.0758  13.3571  13.7567  14.0111  14.6083  14.8004  15.5290
    15.6827  15.7669  15.8595  16.6419  17.7364  17.9570

          k =-0.0469-0.0939 0.1173 (  2837 PWs)   bands (ev):

   -40.7640 -40.7210 -38.4727 -38.3818 -17.1997 -17.1962 -17.1207 -16.9828
   -16.8994 -16.8797 -14.8856 -14.8436 -14.6756 -14.3853 -14.2132 -14.1959
    12.2183  12.8264  13.3854  13.8551  14.2354  14.6918  15.0393  15.3603
    15.4115  15.6127  15.6984  16.0182  17.8868  17.9329

          k =-0.0352-0.0821 0.1056 (  2840 PWs)   bands (ev):

   -40.7624 -40.7225 -38.4697 -38.3849 -17.1974 -17.1968 -17.1215 -16.9857
   -16.8998 -16.8771 -14.8916 -14.8437 -14.6731 -14.3832 -14.2144 -14.1932
    12.4496  12.6980  13.4439  13.8533  14.3330  14.7347  15.0970  15.2772
    15.3708  15.5612  15.6511  15.7140  17.8867  18.0238

          k =-0.0235-0.0704 0.0939 (  2841 PWs)   bands (ev):

   -40.7659 -40.7192 -38.4764 -38.3779 -17.1972 -17.1915 -17.1276 -16.9781
   -16.9033 -16.8791 -14.8882 -14.8396 -14.6806 -14.3764 -14.2210 -14.1956
    11.9927  13.0867  13.4581  13.7872  14.1751  14.7116  14.9141  15.2892
    15.4818  15.5428  15.7323  16.1327  17.7522  18.1021

          k =-0.0117-0.0587 0.0821 (  2843 PWs)   bands (ev):

   -40.7723 -40.7134 -38.4883 -38.3650 -17.1946 -17.1845 -17.1344 -16.9653
   -16.9090 -16.8860 -14.8753 -14.8324 -14.6971 -14.3655 -14.2311 -14.2038
    11.5043  13.2731  13.5254  13.6858  13.9416  14.6557  14.7560  15.3575
    15.5233  15.6771  15.8962  16.8628  17.7561  17.9438

          k =-0.0000-0.0469 0.0704 (  2841 PWs)   bands (ev):

   -40.7792 -40.7071 -38.5010 -38.3512 -17.1885 -17.1772 -17.1382 -16.9537
   -16.9157 -16.8973 -14.8552 -14.8237 -14.7200 -14.3506 -14.2422 -14.2179
    11.0392  13.2471  13.4754  13.7070  13.8859  14.6220  14.6395  15.4240
    15.4456  15.8699  16.0865  17.4660  17.6322  17.9794

          k = 0.0939 0.0235-0.0000 (  2833 PWs)   bands (ev):

   -40.7728 -40.7129 -38.4890 -38.3643 -17.2047 -17.2029 -17.1082 -16.9710
   -16.8985 -16.8936 -14.8498 -14.8403 -14.6820 -14.4083 -14.2118 -14.2061
    11.4196  12.9378  13.2051  13.6957  13.8473  14.5273  14.5387  16.1399
    16.1623  16.2113  16.2250  17.2166  17.3660  17.6453

          k = 0.1056 0.0352-0.0117 (  2834 PWs)   bands (ev):

   -40.7660 -40.7191 -38.4762 -38.3780 -17.2098 -17.2069 -17.1038 -16.9848
   -16.8933 -16.8836 -14.8680 -14.8475 -14.6557 -14.4238 -14.2041 -14.1949
    11.8581  12.8564  13.0640  13.7943  14.0452  14.5954  14.6942  15.8550
    15.9769  16.1454  16.1945  16.9860  17.2979  17.6468

          k =-0.0352-0.1056 0.1291 (  2841 PWs)   bands (ev):

   -40.7597 -40.7250 -38.4641 -38.3908 -17.2107 -17.2066 -17.1010 -16.9998
   -16.8907 -16.8751 -14.8859 -14.8516 -14.6348 -14.4313 -14.2004 -14.1874
    12.3017  12.7361  13.0670  13.7733  14.3045  14.6851  14.9506  15.5013
    15.7975  15.9692  15.9868  16.3890  17.4933  17.6194

          k =-0.0235-0.0939 0.1173 (  2842 PWs)   bands (ev):

   -40.7567 -40.7279 -38.4582 -38.3970 -17.2076 -17.2046 -17.1026 -17.0073
   -16.8915 -16.8700 -14.8983 -14.8517 -14.6276 -14.4281 -14.2024 -14.1836
    12.5130  12.7286  13.1811  13.6905  14.4486  14.7798  15.2278  15.3018
    15.6440  15.7027  15.8131  15.9923  17.7173  17.7364

          k =-0.0117-0.0821 0.1056 (  2839 PWs)   bands (ev):

   -40.7594 -40.7254 -38.4635 -38.3915 -17.2025 -17.2013 -17.1124 -17.0001
   -16.8954 -16.8697 -14.9015 -14.8477 -14.6383 -14.4132 -14.2096 -14.1843
    12.2504  13.0263  13.2959  13.6284  14.3783  14.7922  15.0786  15.4292
    15.5756  15.6343  15.8093  15.9312  17.5273  17.9395

          k =-0.0000-0.0704 0.0939 (  2837 PWs)   bands (ev):

   -40.7655 -40.7196 -38.4754 -38.3789 -17.1997 -17.1930 -17.1249 -16.9833
   -16.9018 -16.8751 -14.8937 -14.8407 -14.6636 -14.3907 -14.2201 -14.1908
    11.8980  13.1984  13.3836  13.6687  14.1569  14.7290  14.8890  15.5027
    15.5311  15.5667  15.8120  16.4657  17.4210  18.0827

          k = 0.1173 0.0235-0.0000 (  2841 PWs)   bands (ev):

   -40.7611 -40.7238 -38.4664 -38.3884 -17.2197 -17.2189 -17.0845 -16.9959
   -16.8858 -16.8825 -14.8614 -14.8544 -14.6294 -14.4614 -14.1918 -14.1884
    12.1136  12.6609  12.8394  13.7663  14.2173  14.5871  14.6024  15.9147
    16.2169  16.6074  16.6298  16.8918  17.1828  17.4418

          k =-0.0235-0.1173 0.1408 (  2844 PWs)   bands (ev):

   -40.7545 -40.7301 -38.4533 -38.4020 -17.2209 -17.2182 -17.0780 -17.0138
   -16.8830 -16.8752 -14.8767 -14.8590 -14.6004 -14.4774 -14.1885 -14.1823
    12.4458  12.6188  12.8550  13.6528  14.4820  14.6758  14.7806  15.5259
    16.0717  16.3907  16.4647  16.7276  17.1301  17.3598

          k =-0.0117-0.1056 0.1291 (  2840 PWs)   bands (ev):

   -40.7503 -40.7341 -38.4450 -38.4105 -17.2177 -17.2132 -17.0785 -17.0261
   -16.8841 -16.8690 -14.8926 -14.8588 -14.5870 -14.4764 -14.1909 -14.1791
    12.5035  12.7377  13.0687  13.4960  14.5904  14.8396  15.0730  15.1980
    15.9312  16.0604  16.0983  16.3566  17.3959  17.4478

          k =-0.0000-0.0939 0.1173 (  2834 PWs)   bands (ev):

   -40.7530 -40.7314 -38.4507 -38.4047 -17.2107 -17.2074 -17.0932 -17.0194
   -16.8886 -16.8666 -14.9023 -14.8547 -14.6033 -14.4503 -14.1986 -14.1793
    12.4144  12.9272  13.2390  13.4440  14.5402  14.8822  15.0993  15.4382
    15.6813  15.7986  15.8389  16.0295  17.6594  17.6650

          k =-0.0117-0.1291 0.1525 (  2852 PWs)   bands (ev):

   -40.7485 -40.7359 -38.4411 -38.4145 -17.2280 -17.2277 -17.0562 -17.0255
   -16.8781 -16.8770 -14.8661 -14.8635 -14.5733 -14.5168 -14.1804 -14.1792
    12.4784  12.4978  12.9528  13.4668  14.6221  14.6312  14.8076  15.3972
    16.3740  16.5966  16.8346  16.8496  17.1328  17.2349

          k = 0.0000-0.1173 0.1408 (  2849 PWs)   bands (ev):

   -40.7444 -40.7399 -38.4327 -38.4229 -17.2249 -17.2222 -17.0548 -17.0384
   -16.8792 -16.8723 -14.8792 -14.8635 -14.5575 -14.5194 -14.1828 -14.1781
    12.4883  12.5879  13.2211  13.2641  14.6447  14.8136  15.0397  15.0664
    16.2367  16.2530  16.5622  16.7392  17.1795  17.2051

          k = 0.0939 0.0469 0.0000 (  2836 PWs)   bands (ev):

   -40.7700 -40.7155 -38.4838 -38.3699 -17.2015 -17.1956 -17.1199 -16.9749
   -16.9010 -16.8847 -14.8721 -14.8403 -14.6761 -14.3940 -14.2182 -14.1994
    11.6207  13.0803  13.2962  13.6861  14.0013  14.6496  14.6946  15.7485
    15.7883  15.8444  15.9357  17.0590  17.5904  17.6684

          k =-0.0469-0.0939 0.1408 (  2835 PWs)   bands (ev):

   -40.7632 -40.7217 -38.4709 -38.3836 -17.2044 -17.1998 -17.1140 -16.9911
   -16.8953 -16.8760 -14.8879 -14.8481 -14.6497 -14.4102 -14.2100 -14.1899
    12.0522  12.9817  13.2117  13.6858  14.2790  14.7421  14.8875  15.5731
    15.6891  15.7302  15.8213  16.4273  17.5214  17.7912

          k =-0.0352-0.0821 0.1291 (  2839 PWs)   bands (ev):

   -40.7583 -40.7264 -38.4614 -38.3936 -17.2044 -17.2027 -17.1081 -17.0038
   -16.8919 -16.8716 -14.8964 -14.8528 -14.6337 -14.4199 -14.2048 -14.1856
    12.4394  12.7714  13.2457  13.6360  14.5262  14.8052  15.1418  15.3737
    15.5664  15.6768  15.7423  15.9084  17.6681  17.9377

          k =-0.0352-0.1056 0.1525 (  2833 PWs)   bands (ev):

   -40.7593 -40.7254 -38.4631 -38.3918 -17.2125 -17.2101 -17.0961 -17.0032
   -16.8872 -16.8761 -14.8804 -14.8570 -14.6223 -14.4461 -14.1977 -14.1861
    12.2300  12.7986  12.9633  13.6905  14.3690  14.7459  14.7875  15.6731
    15.8113  16.1192  16.1251  16.5985  17.4139  17.4333

          k =-0.0235-0.0939 0.1408 (  2833 PWs)   bands (ev):

   -40.7533 -40.7311 -38.4512 -38.4042 -17.2121 -17.2099 -17.0891 -17.0214
   -16.8835 -16.8709 -14.8908 -14.8632 -14.5949 -14.4624 -14.1938 -14.1819
    12.5238  12.7439  13.0149  13.5369  14.6688  14.8463  15.0444  15.4319
    15.6971  15.9345  15.9442  16.1299  17.5084  17.6462

          k =-0.0117-0.0821 0.1291 (  2834 PWs)   bands (ev):

   -40.7519 -40.7325 -38.4483 -38.4072 -17.2095 -17.2083 -17.0902 -17.0261
   -16.8841 -16.8685 -14.8973 -14.8630 -14.5907 -14.4607 -14.1951 -14.1808
    12.5428  12.8162  13.1288  13.4300  14.7525  14.9466  15.2245  15.3845
    15.6227  15.7208  15.7852  15.8862  17.7077  17.7830

          k =-0.0000-0.0704 0.1173 (  2840 PWs)   bands (ev):

   -40.7566 -40.7280 -38.4578 -38.3974 -17.2068 -17.2052 -17.1020 -17.0118
   -16.8886 -16.8698 -14.8970 -14.8571 -14.6138 -14.4387 -14.2015 -14.1827
    12.3472  12.9445  13.1242  13.5318  14.5718  14.9060  15.0364  15.5129
    15.6014  15.7417  15.8082  16.0320  17.4890  17.9496

          k =-0.0117-0.1056 0.1525 (  2838 PWs)   bands (ev):

   -40.7479 -40.7364 -38.4399 -38.4157 -17.2187 -17.2181 -17.0673 -17.0353
   -16.8774 -16.8734 -14.8795 -14.8709 -14.5632 -14.5034 -14.1847 -14.1808
    12.5775  12.6256  13.0144  13.4312  14.7891  14.8248  14.8873  15.3011
    15.9325  16.1307  16.3288  16.3955  17.3620  17.3737

          k =-0.0000-0.0939 0.1408 (  2834 PWs)   bands (ev):

   -40.7458 -40.7385 -38.4357 -38.4200 -17.2151 -17.2132 -17.0690 -17.0438
   -16.8782 -16.8701 -14.8891 -14.8711 -14.5549 -14.5013 -14.1870 -14.1803
    12.5853  12.7362  13.1813  13.2657  14.8429  15.0810  15.1214  15.1304
    15.8199  15.8255  15.9785  16.1173  17.5740  17.5783

          k =-0.0117-0.0821 0.1525 (  2832 PWs)   bands (ev):

   -40.7470 -40.7373 -38.4381 -38.4175 -17.2115 -17.2115 -17.0744 -17.0435
   -16.8773 -16.8706 -14.8893 -14.8746 -14.5557 -14.4955 -14.1878 -14.1815
    12.6400  12.7577  13.0865  13.3129  14.9860  15.0824  15.1240  15.3541
    15.6055  15.7486  15.8354  15.8748  17.6802  17.8319

     the Fermi energy is    15.6958 ev

!    total energy              =    -469.16135028 Ry
     Harris-Foulkes estimate   =    -469.16135028 Ry
     estimated scf accuracy    <          4.5E-13 Ry

     The total energy is the sum of the following terms:

     one-electron contribution =    -114.31199348 Ry
     hartree contribution      =      78.55499753 Ry
     xc contribution           =     -65.95386734 Ry
     ewald contribution        =    -367.44735888 Ry
     smearing contrib. (-TS)   =      -0.00312811 Ry

     convergence has been achieved in  46 iterations

     Forces acting on atoms (Ry/au):

     atom    1 type  2   force =    -0.00000000    0.00000000    0.00000000
     atom    2 type  2   force =     0.00000000    0.00000000    0.00000000
     atom    3 type  1   force =     0.00000000    0.00000000    0.00000000
     atom    4 type  1   force =    -0.00000000    0.00000000    0.00000000

     Total force =     0.000000     Total SCF correction =     0.000000


     entering subroutine stress ...

          total   stress  (Ry/bohr**3)                   (kbar)     P=   -0.84
  -0.00000571   0.00000000   0.00000000         -0.84      0.00      0.00
   0.00000000  -0.00000571  -0.00000000          0.00     -0.84     -0.00
   0.00000000  -0.00000000  -0.00000571          0.00     -0.00     -0.84


     init_run     :     16.28s CPU     16.80s WALL (       2 calls)
     electrons    :   4813.69s CPU   4955.03s WALL (       9 calls)
     update_pot   :     19.91s CPU     20.02s WALL (       7 calls)
     forces       :     29.23s CPU     30.36s WALL (       9 calls)
     stress       :     58.20s CPU     60.87s WALL (       9 calls)

     Called by init_run:
     wfcinit      :     13.07s CPU     13.38s WALL (       2 calls)
     potinit      :      1.01s CPU      1.04s WALL (       2 calls)

     Called by electrons:
     c_bands      :   3852.93s CPU   3933.47s WALL (     292 calls)
     sum_band     :    846.83s CPU    886.42s WALL (     292 calls)
     v_of_rho     :     34.37s CPU     35.51s WALL (     298 calls)
     newd         :     73.36s CPU     93.58s WALL (     298 calls)
     mix_rho      :      5.49s CPU      5.69s WALL (     292 calls)

     Called by c_bands:
     init_us_2    :     48.34s CPU     49.30s WALL (   50736 calls)
     cegterg      :   3740.25s CPU   3818.55s WALL (   24528 calls)

     Called by sum_band:
     sum_band:bec :      1.83s CPU      1.85s WALL (   24528 calls)
     addusdens    :    101.70s CPU    122.23s WALL (     292 calls)

     Called by *egterg:
     h_psi        :   2636.26s CPU   2705.77s WALL (   92164 calls)
     s_psi        :    205.46s CPU    206.99s WALL (   92164 calls)
     g_psi        :      7.06s CPU      7.09s WALL (   67468 calls)
     cdiaghg      :    211.75s CPU    213.05s WALL (   91156 calls)

     Called by h_psi:
     h_psi:pot    :   2613.28s CPU   2682.48s WALL (   92164 calls)
     h_psi:calbec :    249.96s CPU    255.88s WALL (   92164 calls)
     vloc_psi     :   2177.49s CPU   2239.38s WALL (   92164 calls)
     add_vuspsi   :    185.15s CPU    186.69s WALL (   92164 calls)

     General routines
     calbec       :    356.29s CPU    364.54s WALL (  120472 calls)
     fft          :     24.47s CPU     26.07s WALL (    4976 calls)
     ffts         :      0.40s CPU      0.42s WALL (     590 calls)
     fftw         :   1775.81s CPU   1820.17s WALL ( 4415778 calls)
     interpolate  :      4.44s CPU      4.66s WALL (     590 calls)

     Parallel routines
     fft_scatter  :    328.67s CPU    340.08s WALL ( 4421344 calls)

     PWSCF        :     1h22m CPU        1h24m WALL


   This run was terminated on:  16:31:31  27Apr2018            

=------------------------------------------------------------------------------=
   JOB DONE.
=------------------------------------------------------------------------------=
