
     Program PWSCF v.6.0 (svn rev. 13079) starts on  1May2018 at 11:34:46 

     This program is part of the open-source Quantum ESPRESSO suite
     for quantum simulation of materials; please cite
         "P. Giannozzi et al., J. Phys.:Condens. Matter 21 395502 (2009);
          URL http://www.quantum-espresso.org", 
     in publications or presentations arising from this work. More details at
     http://www.quantum-espresso.org/quote

     Parallel version (MPI), running on     4 processors
     R & G space division:  proc/nbgrp/npool/nimage =       4
     Waiting for input...
     Reading input from standard input

     Current dimensions of program PWSCF are:
     Max number of different atomic species (ntypx) = 10
     Max number of k-points (npk) =  40000
     Max angular momentum in pseudopotentials (lmaxx) =  3

     Subspace diagonalization in iterative solution of the eigenvalue problem:
     a serial algorithm will be used


     Parallelization info
     --------------------
     sticks:   dense  smooth     PW     G-vecs:    dense   smooth      PW
     Min         431     171     53                18199     4595     779
     Max         432     172     54                18202     4596     782
     Sum        1727     687    213                72801    18383    3123



     bravais-lattice index     =            0
     lattice parameter (alat)  =       1.8897  a.u.
     unit-cell volume          =     538.8952 (a.u.)^3
     number of atoms/cell      =            4
     number of atomic types    =            2
     number of electrons       =        49.00
     number of Kohn-Sham states=           30
     kinetic-energy cutoff     =      40.0000  Ry
     charge density cutoff     =     400.0000  Ry
     convergence threshold     =      1.0E-10
     mixing beta               =       0.6000
     number of iterations used =            8  plain     mixing
     Exchange-correlation      = SLA  PW   PBE  PBE ( 1  4  3  4 0 0)
     nstep                     =           50


     celldm(1)=   1.889726  celldm(2)=   0.000000  celldm(3)=   0.000000
     celldm(4)=   0.000000  celldm(5)=   0.000000  celldm(6)=   0.000000

     crystal axes: (cart. coord. in units of alat)
               a(1) = (   1.522502  -2.637051   0.000000 )  
               a(2) = (   0.000000   0.000000  -4.972461 )  
               a(3) = (   4.567506   2.637051   0.000000 )  

     reciprocal axes: (cart. coord. in units 2 pi/alat)
               b(1) = (  0.164203 -0.284409  0.000000 )  
               b(2) = (  0.000000  0.000000 -0.201108 )  
               b(3) = (  0.164203  0.094803  0.000000 )  


     PseudoPot. # 1 for Nb read from file:
     ./Nb.pbe-nsp-van.UPF
     MD5 check sum: 0a22fc7fb0ba19a08ca5db297a5d2854
     Pseudo is Ultrasoft + core correction, Zval = 13.0
     Generated by new atomic code, or converted to UPF format
     Using radial grid of  887 points,  6 beta functions with: 
                l(1) =   0
                l(2) =   0
                l(3) =   1
                l(4) =   1
                l(5) =   2
                l(6) =   2
     Q(r) pseudized with  6 coefficients,  rinner =    1.000   1.000   1.000
                                                       1.000   1.000

     PseudoPot. # 2 for Ti read from file:
     ./Ti.pbe-sp-van_ak.UPF
     MD5 check sum: f98fea3e8887528921fefa5636a534ca
     Pseudo is Ultrasoft, Zval = 12.0
     Generated by new atomic code, or converted to UPF format
     Using radial grid of  851 points,  6 beta functions with: 
                l(1) =   0
                l(2) =   0
                l(3) =   1
                l(4) =   1
                l(5) =   2
                l(6) =   2
     Q(r) pseudized with  8 coefficients,  rinner =    1.000   1.000   1.000
                                                       1.000   1.000

     atomic species   valence    mass     pseudopotential
        Nb            13.00    92.90638     Nb( 1.00)
        Ti            12.00    47.86700     Ti( 1.00)

      4 Sym. Ops. (no inversion) found



   Cartesian axes

     site n.     atom                  positions (alat units)
         1           Ti  tau(   1) = (   3.0450042   0.0000000  -4.9724614  )
         2           Ti  tau(   2) = (   3.0450058  -1.7580350  -2.4862307  )
         3           Ti  tau(   3) = (   6.0900085   0.0000000  -4.9724614  )
         4           Nb  tau(   4) = (   4.5675079   0.8790162  -2.4862307  )

     number of k points=   360  Marzari-Vanderbilt smearing, width (Ry)=  0.0200

     Number of k-points >= 100: set verbosity='high' to print them.

     Dense  grid:    72801 G-vectors     FFT dimensions: (  40,  60,  64)

     Smooth grid:    18383 G-vectors     FFT dimensions: (  24,  40,  45)

     Estimated max dynamical RAM per process >     108.33Mb

     Estimated total allocated dynamical RAM >     433.33Mb

     Initial potential from superposition of free atoms

     starting charge   45.99713, renormalised to   49.00000
     Starting wfc are   43 randomized atomic wfcs

     total cpu time spent up to now is       15.8 secs

     per-process dynamical memory:   179.5 Mb

     Self-consistent Calculation

     iteration #  1     ecut=    40.00 Ry     beta=0.60
     Davidson diagonalization with overlap
     ethr =  1.00E-02,  avg # of iterations =  3.7

     total cpu time spent up to now is       55.9 secs

     total energy              =    -464.09162464 Ry
     Harris-Foulkes estimate   =    -469.29295618 Ry
     estimated scf accuracy    <       6.71020528 Ry

     iteration #  2     ecut=    40.00 Ry     beta=0.60
     Davidson diagonalization with overlap
     ethr =  1.00E-02,  avg # of iterations =  5.1

     total cpu time spent up to now is      106.4 secs

     total energy              =    -464.03977157 Ry
     Harris-Foulkes estimate   =    -476.16139859 Ry
     estimated scf accuracy    <      41.56778361 Ry

     iteration #  3     ecut=    40.00 Ry     beta=0.60
     Davidson diagonalization with overlap
     ethr =  1.00E-02,  avg # of iterations =  4.8

     total cpu time spent up to now is      147.8 secs

     total energy              =    -467.33743522 Ry
     Harris-Foulkes estimate   =    -468.55376169 Ry
     estimated scf accuracy    <       7.98310922 Ry

     iteration #  4     ecut=    40.00 Ry     beta=0.60
     Davidson diagonalization with overlap
     ethr =  1.00E-02,  avg # of iterations =  1.8

     total cpu time spent up to now is      173.9 secs

     total energy              =    -467.71135470 Ry
     Harris-Foulkes estimate   =    -467.70063269 Ry
     estimated scf accuracy    <       1.55497116 Ry

     iteration #  5     ecut=    40.00 Ry     beta=0.60
     Davidson diagonalization with overlap
     ethr =  3.17E-03,  avg # of iterations =  4.7

     total cpu time spent up to now is      206.8 secs

     total energy              =    -468.10626515 Ry
     Harris-Foulkes estimate   =    -467.83884059 Ry
     estimated scf accuracy    <       0.49641825 Ry

     iteration #  6     ecut=    40.00 Ry     beta=0.60
     Davidson diagonalization with overlap
     ethr =  1.01E-03,  avg # of iterations =  5.7

     total cpu time spent up to now is      250.3 secs

     total energy              =    -468.34940873 Ry
     Harris-Foulkes estimate   =    -468.36257887 Ry
     estimated scf accuracy    <       3.28595636 Ry

     iteration #  7     ecut=    40.00 Ry     beta=0.60
     Davidson diagonalization with overlap
     ethr =  1.01E-03,  avg # of iterations =  1.1

     total cpu time spent up to now is      275.1 secs

     total energy              =    -468.37354409 Ry
     Harris-Foulkes estimate   =    -468.35093391 Ry
     estimated scf accuracy    <       3.26492855 Ry

     iteration #  8     ecut=    40.00 Ry     beta=0.60
     Davidson diagonalization with overlap
     ethr =  1.01E-03,  avg # of iterations =  1.0

     total cpu time spent up to now is      299.8 secs

     total energy              =    -468.75648105 Ry
     Harris-Foulkes estimate   =    -468.37397970 Ry
     estimated scf accuracy    <       3.34297382 Ry

     iteration #  9     ecut=    40.00 Ry     beta=0.60
     Davidson diagonalization with overlap
     ethr =  1.01E-03,  avg # of iterations =  2.8

     total cpu time spent up to now is      327.4 secs

     total energy              =    -470.06275818 Ry
     Harris-Foulkes estimate   =    -468.78439765 Ry
     estimated scf accuracy    <       4.72601778 Ry

     iteration # 10     ecut=    40.00 Ry     beta=0.60
     Davidson diagonalization with overlap
     ethr =  1.01E-03,  avg # of iterations =  4.5

     total cpu time spent up to now is      368.0 secs

     total energy              =    -471.99863605 Ry
     Harris-Foulkes estimate   =    -470.25078877 Ry
     estimated scf accuracy    <       9.87683791 Ry

     iteration # 11     ecut=    40.00 Ry     beta=0.60
     Davidson diagonalization with overlap
     ethr =  1.01E-03,  avg # of iterations =  3.4

     total cpu time spent up to now is      400.5 secs

     total energy              =    -472.10557917 Ry
     Harris-Foulkes estimate   =    -472.10019491 Ry
     estimated scf accuracy    <      15.73318417 Ry

     iteration # 12     ecut=    40.00 Ry     beta=0.60
     Davidson diagonalization with overlap
     ethr =  1.01E-03,  avg # of iterations =  1.1

     total cpu time spent up to now is      425.3 secs

     total energy              =    -472.46566637 Ry
     Harris-Foulkes estimate   =    -472.11014121 Ry
     estimated scf accuracy    <      15.33307730 Ry

     iteration # 13     ecut=    40.00 Ry     beta=0.60
     Davidson diagonalization with overlap
     ethr =  1.01E-03,  avg # of iterations =  1.0

     total cpu time spent up to now is      450.0 secs

     total energy              =    -464.49434970 Ry
     Harris-Foulkes estimate   =    -472.47009769 Ry
     estimated scf accuracy    <      15.77831374 Ry

     iteration # 14     ecut=    40.00 Ry     beta=0.60
     Davidson diagonalization with overlap
     ethr =  1.01E-03,  avg # of iterations =  5.9

     total cpu time spent up to now is      509.2 secs

     total energy              =    -466.52641266 Ry
     Harris-Foulkes estimate   =    -473.79956525 Ry
     estimated scf accuracy    <      53.67596495 Ry

     iteration # 15     ecut=    40.00 Ry     beta=0.60
     Davidson diagonalization with overlap
     ethr =  1.01E-03,  avg # of iterations =  5.6

     total cpu time spent up to now is      562.4 secs

     total energy              =    -467.53701670 Ry
     Harris-Foulkes estimate   =    -468.02169882 Ry
     estimated scf accuracy    <       4.27549239 Ry

     iteration # 16     ecut=    40.00 Ry     beta=0.60
     Davidson diagonalization with overlap
     ethr =  1.01E-03,  avg # of iterations =  5.2

     total cpu time spent up to now is      599.1 secs

     total energy              =    -467.84123082 Ry
     Harris-Foulkes estimate   =    -467.84990929 Ry
     estimated scf accuracy    <       0.22686127 Ry

     iteration # 17     ecut=    40.00 Ry     beta=0.60
     Davidson diagonalization with overlap
     ethr =  4.63E-04,  avg # of iterations =  3.6

     total cpu time spent up to now is      629.5 secs

     total energy              =    -467.85167967 Ry
     Harris-Foulkes estimate   =    -467.84829908 Ry
     estimated scf accuracy    <       0.17799909 Ry

     iteration # 18     ecut=    40.00 Ry     beta=0.60
     Davidson diagonalization with overlap
     ethr =  3.63E-04,  avg # of iterations =  1.4

     total cpu time spent up to now is      654.7 secs

     total energy              =    -467.81005925 Ry
     Harris-Foulkes estimate   =    -467.85321892 Ry
     estimated scf accuracy    <       0.22504802 Ry

     iteration # 19     ecut=    40.00 Ry     beta=0.60
     Davidson diagonalization with overlap
     ethr =  3.63E-04,  avg # of iterations =  2.9

     total cpu time spent up to now is      682.8 secs

     total energy              =    -467.83407062 Ry
     Harris-Foulkes estimate   =    -467.83568423 Ry
     estimated scf accuracy    <       0.02473832 Ry

     iteration # 20     ecut=    40.00 Ry     beta=0.60
     Davidson diagonalization with overlap
     ethr =  5.05E-05,  avg # of iterations =  5.9

     total cpu time spent up to now is      726.5 secs

     total energy              =    -467.83682302 Ry
     Harris-Foulkes estimate   =    -467.83934336 Ry
     estimated scf accuracy    <       0.04211049 Ry

     iteration # 21     ecut=    40.00 Ry     beta=0.60
     Davidson diagonalization with overlap
     ethr =  5.05E-05,  avg # of iterations =  1.0

     total cpu time spent up to now is      751.3 secs

     total energy              =    -467.83917485 Ry
     Harris-Foulkes estimate   =    -467.83734584 Ry
     estimated scf accuracy    <       0.01565934 Ry

     iteration # 22     ecut=    40.00 Ry     beta=0.60
     Davidson diagonalization with overlap
     ethr =  3.20E-05,  avg # of iterations =  1.0

     total cpu time spent up to now is      776.0 secs

     total energy              =    -467.83124174 Ry
     Harris-Foulkes estimate   =    -467.83998243 Ry
     estimated scf accuracy    <       0.05102257 Ry

     iteration # 23     ecut=    40.00 Ry     beta=0.60
     Davidson diagonalization with overlap
     ethr =  3.20E-05,  avg # of iterations =  4.6

     total cpu time spent up to now is      811.6 secs

     total energy              =    -467.83654977 Ry
     Harris-Foulkes estimate   =    -467.83769497 Ry
     estimated scf accuracy    <       0.01486680 Ry

     iteration # 24     ecut=    40.00 Ry     beta=0.60
     Davidson diagonalization with overlap
     ethr =  3.03E-05,  avg # of iterations =  1.0

     total cpu time spent up to now is      836.3 secs

     total energy              =    -467.83678811 Ry
     Harris-Foulkes estimate   =    -467.83685172 Ry
     estimated scf accuracy    <       0.00443761 Ry

     iteration # 25     ecut=    40.00 Ry     beta=0.60
     Davidson diagonalization with overlap
     c_bands:  1 eigenvalues not converged
     ethr =  9.06E-06,  avg # of iterations =  1.7

     total cpu time spent up to now is      862.2 secs

     total energy              =    -467.83678412 Ry
     Harris-Foulkes estimate   =    -467.83683852 Ry
     estimated scf accuracy    <       0.00371579 Ry

     iteration # 26     ecut=    40.00 Ry     beta=0.60
     Davidson diagonalization with overlap
     ethr =  7.58E-06,  avg # of iterations =  1.0

     total cpu time spent up to now is      886.9 secs

     total energy              =    -467.83665973 Ry
     Harris-Foulkes estimate   =    -467.83681530 Ry
     estimated scf accuracy    <       0.00278582 Ry

     iteration # 27     ecut=    40.00 Ry     beta=0.60
     Davidson diagonalization with overlap
     ethr =  5.69E-06,  avg # of iterations =  2.9

     total cpu time spent up to now is      915.1 secs

     total energy              =    -467.83676679 Ry
     Harris-Foulkes estimate   =    -467.83677795 Ry
     estimated scf accuracy    <       0.00049537 Ry

     iteration # 28     ecut=    40.00 Ry     beta=0.60
     Davidson diagonalization with overlap
     ethr =  1.01E-06,  avg # of iterations =  5.0

     total cpu time spent up to now is      951.4 secs

     total energy              =    -467.83682581 Ry
     Harris-Foulkes estimate   =    -467.83683034 Ry
     estimated scf accuracy    <       0.00006948 Ry

     iteration # 29     ecut=    40.00 Ry     beta=0.60
     Davidson diagonalization with overlap
     ethr =  1.42E-07,  avg # of iterations =  3.4

     total cpu time spent up to now is      982.0 secs

     total energy              =    -467.83682863 Ry
     Harris-Foulkes estimate   =    -467.83683085 Ry
     estimated scf accuracy    <       0.00001901 Ry

     iteration # 30     ecut=    40.00 Ry     beta=0.60
     Davidson diagonalization with overlap
     ethr =  3.88E-08,  avg # of iterations =  3.9

     total cpu time spent up to now is     1014.8 secs

     total energy              =    -467.83683083 Ry
     Harris-Foulkes estimate   =    -467.83683094 Ry
     estimated scf accuracy    <       0.00000077 Ry

     iteration # 31     ecut=    40.00 Ry     beta=0.60
     Davidson diagonalization with overlap
     ethr =  1.58E-09,  avg # of iterations =  5.0

     total cpu time spent up to now is     1053.9 secs

     total energy              =    -467.83683108 Ry
     Harris-Foulkes estimate   =    -467.83683109 Ry
     estimated scf accuracy    <       0.00000059 Ry

     iteration # 32     ecut=    40.00 Ry     beta=0.60
     Davidson diagonalization with overlap
     ethr =  1.20E-09,  avg # of iterations =  1.0

     total cpu time spent up to now is     1078.6 secs

     total energy              =    -467.83683104 Ry
     Harris-Foulkes estimate   =    -467.83683110 Ry
     estimated scf accuracy    <       0.00000052 Ry

     iteration # 33     ecut=    40.00 Ry     beta=0.60
     Davidson diagonalization with overlap
     ethr =  1.06E-09,  avg # of iterations =  1.0

     total cpu time spent up to now is     1103.3 secs

     total energy              =    -467.83683105 Ry
     Harris-Foulkes estimate   =    -467.83683106 Ry
     estimated scf accuracy    <       0.00000005 Ry

     iteration # 34     ecut=    40.00 Ry     beta=0.60
     Davidson diagonalization with overlap
     ethr =  9.55E-11,  avg # of iterations =  5.0

     total cpu time spent up to now is     1143.5 secs

     total energy              =    -467.83683107 Ry
     Harris-Foulkes estimate   =    -467.83683107 Ry
     estimated scf accuracy    <       0.00000004 Ry

     iteration # 35     ecut=    40.00 Ry     beta=0.60
     Davidson diagonalization with overlap
     ethr =  8.96E-11,  avg # of iterations =  1.0

     total cpu time spent up to now is     1168.2 secs

     total energy              =    -467.83683106 Ry
     Harris-Foulkes estimate   =    -467.83683107 Ry
     estimated scf accuracy    <       0.00000002 Ry

     iteration # 36     ecut=    40.00 Ry     beta=0.60
     Davidson diagonalization with overlap
     ethr =  4.27E-11,  avg # of iterations =  1.0

     total cpu time spent up to now is     1192.9 secs

     total energy              =    -467.83683106 Ry
     Harris-Foulkes estimate   =    -467.83683107 Ry
     estimated scf accuracy    <          6.3E-09 Ry

     iteration # 37     ecut=    40.00 Ry     beta=0.60
     Davidson diagonalization with overlap
     ethr =  1.29E-11,  avg # of iterations =  4.3

     total cpu time spent up to now is     1228.0 secs

     total energy              =    -467.83683107 Ry
     Harris-Foulkes estimate   =    -467.83683107 Ry
     estimated scf accuracy    <          1.6E-09 Ry

     iteration # 38     ecut=    40.00 Ry     beta=0.60
     Davidson diagonalization with overlap
     ethr =  3.26E-12,  avg # of iterations =  1.8

     total cpu time spent up to now is     1254.1 secs

     total energy              =    -467.83683107 Ry
     Harris-Foulkes estimate   =    -467.83683107 Ry
     estimated scf accuracy    <          2.2E-09 Ry

     iteration # 39     ecut=    40.00 Ry     beta=0.60
     Davidson diagonalization with overlap
     ethr =  3.26E-12,  avg # of iterations =  1.3

     total cpu time spent up to now is     1279.2 secs

     total energy              =    -467.83683107 Ry
     Harris-Foulkes estimate   =    -467.83683107 Ry
     estimated scf accuracy    <          1.6E-09 Ry

     iteration # 40     ecut=    40.00 Ry     beta=0.60
     Davidson diagonalization with overlap
     ethr =  3.26E-12,  avg # of iterations =  1.0

     total cpu time spent up to now is     1303.9 secs

     total energy              =    -467.83683107 Ry
     Harris-Foulkes estimate   =    -467.83683107 Ry
     estimated scf accuracy    <          4.8E-10 Ry

     iteration # 41     ecut=    40.00 Ry     beta=0.60
     Davidson diagonalization with overlap
     ethr =  9.79E-13,  avg # of iterations =  3.0

     total cpu time spent up to now is     1331.9 secs

     total energy              =    -467.83683107 Ry
     Harris-Foulkes estimate   =    -467.83683107 Ry
     estimated scf accuracy    <          1.5E-10 Ry

     iteration # 42     ecut=    40.00 Ry     beta=0.60
     Davidson diagonalization with overlap
     ethr =  3.11E-13,  avg # of iterations =  3.8

     total cpu time spent up to now is     1362.6 secs

     End of self-consistent calculation

     Number of k-points >= 100: set verbosity='high' to print the bands.

     the Fermi energy is    12.5698 ev

!    total energy              =    -467.83683107 Ry
     Harris-Foulkes estimate   =    -467.83683107 Ry
     estimated scf accuracy    <          3.9E-11 Ry

     The total energy is the sum of the following terms:

     one-electron contribution =    -163.07461917 Ry
     hartree contribution      =      95.17601381 Ry
     xc contribution           =     -61.58730409 Ry
     ewald contribution        =    -338.34752564 Ry
     smearing contrib. (-TS)   =      -0.00339597 Ry

     convergence has been achieved in  42 iterations

     Forces acting on atoms (Ry/au):

     atom    1 type  2   force =     0.00168969    0.00097554    0.00000000
     atom    2 type  2   force =     0.00171883    0.00099237    0.00000000
     atom    3 type  2   force =    -0.00127815   -0.00073794    0.00000000
     atom    4 type  1   force =    -0.00213037   -0.00122997    0.00000000

     Total force =     0.003997     Total SCF correction =     0.000005


     entering subroutine stress ...

          total   stress  (Ry/bohr**3)                   (kbar)     P= -132.16
  -0.00088386   0.00000978   0.00000000       -130.02      1.44      0.00
   0.00000978  -0.00089515   0.00000000          1.44   -131.68      0.00
   0.00000000   0.00000000  -0.00091616          0.00      0.00   -134.77


     BFGS Geometry Optimization

     number of scf cycles    =   1
     number of bfgs steps    =   0

     enthalpy new            =    -467.8368310659 Ry

     new trust radius        =       0.1063394816 bohr
     new conv_thr            =            1.0E-10 Ry

     new unit-cell volume =    503.39406 a.u.^3 (    74.59530 Ang^3 )

CELL_PARAMETERS (alat=  1.88972599)
   1.488215105  -2.577664360   0.000000000
   0.000000000   0.000000000  -4.858571473
   4.467225553   2.579154061   0.000000000

ATOMIC_POSITIONS (angstrom)
Ti       2.978594844   0.001249752  -4.858571473
Ti       2.978181375  -1.717433590  -2.429285736
Ti       5.954779138   0.001107772  -4.858571473
Nb       4.465694410   0.859825430  -2.429285736


     NEW-OLD atomic charge density approx. for the potential
     extrapolated charge   45.75612, renormalised to   49.00000

     total cpu time spent up to now is     1378.6 secs

     per-process dynamical memory:   186.8 Mb

     Self-consistent Calculation

     iteration #  1     ecut=    40.00 Ry     beta=0.60
     Davidson diagonalization with overlap
     c_bands:  2 eigenvalues not converged
     c_bands:  1 eigenvalues not converged
     c_bands:  1 eigenvalues not converged
     c_bands:  1 eigenvalues not converged
     c_bands:  1 eigenvalues not converged
     c_bands:  1 eigenvalues not converged
     c_bands:  4 eigenvalues not converged
     c_bands:  3 eigenvalues not converged
     c_bands:  1 eigenvalues not converged
     c_bands:  1 eigenvalues not converged
     c_bands:  1 eigenvalues not converged
     c_bands:  1 eigenvalues not converged
     c_bands:  1 eigenvalues not converged
     c_bands:  1 eigenvalues not converged
     c_bands:  3 eigenvalues not converged
     c_bands:  1 eigenvalues not converged
     c_bands:  1 eigenvalues not converged
     c_bands:  3 eigenvalues not converged
     c_bands:  1 eigenvalues not converged
     c_bands:  2 eigenvalues not converged
     c_bands:  1 eigenvalues not converged
     c_bands:  2 eigenvalues not converged
     c_bands:  2 eigenvalues not converged
     c_bands:  1 eigenvalues not converged
     c_bands:  2 eigenvalues not converged
     c_bands:  1 eigenvalues not converged
     c_bands:  1 eigenvalues not converged
     c_bands:  1 eigenvalues not converged
     c_bands:  1 eigenvalues not converged
     c_bands:  2 eigenvalues not converged
     c_bands:  1 eigenvalues not converged
     c_bands:  1 eigenvalues not converged
     c_bands:  1 eigenvalues not converged
     c_bands:  1 eigenvalues not converged
     c_bands:  1 eigenvalues not converged
     c_bands:  1 eigenvalues not converged
     c_bands:  1 eigenvalues not converged
     c_bands:  1 eigenvalues not converged
     c_bands:  1 eigenvalues not converged
     c_bands:  2 eigenvalues not converged
     c_bands:  2 eigenvalues not converged
     c_bands:  1 eigenvalues not converged
     c_bands:  1 eigenvalues not converged
     c_bands:  1 eigenvalues not converged
     c_bands:  1 eigenvalues not converged
     c_bands:  1 eigenvalues not converged
     c_bands:  1 eigenvalues not converged
     c_bands:  1 eigenvalues not converged
     c_bands:  1 eigenvalues not converged
     c_bands:  1 eigenvalues not converged
     c_bands:  1 eigenvalues not converged
     c_bands:  1 eigenvalues not converged
     c_bands:  1 eigenvalues not converged
     c_bands:  1 eigenvalues not converged
     c_bands:  1 eigenvalues not converged
     c_bands:  1 eigenvalues not converged
     c_bands:  1 eigenvalues not converged
     c_bands:  1 eigenvalues not converged
     c_bands:  1 eigenvalues not converged
     c_bands:  1 eigenvalues not converged
     c_bands:  1 eigenvalues not converged
     c_bands:  2 eigenvalues not converged
     c_bands:  1 eigenvalues not converged
     c_bands:  1 eigenvalues not converged
     c_bands:  1 eigenvalues not converged
     c_bands:  1 eigenvalues not converged
     c_bands:  1 eigenvalues not converged
     c_bands:  1 eigenvalues not converged
     c_bands:  1 eigenvalues not converged
     c_bands:  1 eigenvalues not converged
     c_bands:  1 eigenvalues not converged
     c_bands:  1 eigenvalues not converged
     c_bands:  1 eigenvalues not converged
     c_bands:  1 eigenvalues not converged
     c_bands:  1 eigenvalues not converged
     c_bands:  1 eigenvalues not converged
     c_bands:  1 eigenvalues not converged
     c_bands:  1 eigenvalues not converged
     c_bands:  1 eigenvalues not converged
     c_bands:  1 eigenvalues not converged
     c_bands:  1 eigenvalues not converged
     c_bands:  1 eigenvalues not converged
     ethr =  1.00E-06,  avg # of iterations = 16.1

     total cpu time spent up to now is     1498.4 secs

     total energy              =    -463.51498437 Ry
     Harris-Foulkes estimate   =    -475.51346997 Ry
     estimated scf accuracy    <       4.44407114 Ry

     iteration #  2     ecut=    40.00 Ry     beta=0.60
     Davidson diagonalization with overlap
     ethr =  9.07E-03,  avg # of iterations =  5.1

     total cpu time spent up to now is     1556.8 secs

     total energy              =    -466.13949946 Ry
     Harris-Foulkes estimate   =    -474.80958197 Ry
     estimated scf accuracy    <      33.36782431 Ry

     iteration #  3     ecut=    40.00 Ry     beta=0.60
     Davidson diagonalization with overlap
     ethr =  9.07E-03,  avg # of iterations =  3.8

     total cpu time spent up to now is     1592.8 secs

     total energy              =    -467.84860156 Ry
     Harris-Foulkes estimate   =    -468.97799651 Ry
     estimated scf accuracy    <       3.84307433 Ry

     iteration #  4     ecut=    40.00 Ry     beta=0.60
     Davidson diagonalization with overlap
     ethr =  7.84E-03,  avg # of iterations =  2.8

     total cpu time spent up to now is     1621.3 secs

     total energy              =    -467.97635651 Ry
     Harris-Foulkes estimate   =    -468.33878942 Ry
     estimated scf accuracy    <       3.13113011 Ry

     iteration #  5     ecut=    40.00 Ry     beta=0.60
     Davidson diagonalization with overlap
     ethr =  6.39E-03,  avg # of iterations =  1.0

     total cpu time spent up to now is     1646.1 secs

     total energy              =    -467.85690262 Ry
     Harris-Foulkes estimate   =    -468.06023868 Ry
     estimated scf accuracy    <       1.64536229 Ry

     iteration #  6     ecut=    40.00 Ry     beta=0.60
     Davidson diagonalization with overlap
     ethr =  3.36E-03,  avg # of iterations =  1.4

     total cpu time spent up to now is     1671.3 secs

     total energy              =    -467.86064201 Ry
     Harris-Foulkes estimate   =    -467.90519080 Ry
     estimated scf accuracy    <       0.71126128 Ry

     iteration #  7     ecut=    40.00 Ry     beta=0.60
     Davidson diagonalization with overlap
     ethr =  1.45E-03,  avg # of iterations =  3.3

     total cpu time spent up to now is     1700.4 secs

     total energy              =    -467.89185650 Ry
     Harris-Foulkes estimate   =    -467.89274303 Ry
     estimated scf accuracy    <       0.38928586 Ry

     iteration #  8     ecut=    40.00 Ry     beta=0.60
     Davidson diagonalization with overlap
     ethr =  7.94E-04,  avg # of iterations =  3.0

     total cpu time spent up to now is     1728.6 secs

     total energy              =    -467.87973809 Ry
     Harris-Foulkes estimate   =    -467.90078767 Ry
     estimated scf accuracy    <       0.36094340 Ry

     iteration #  9     ecut=    40.00 Ry     beta=0.60
     Davidson diagonalization with overlap
     ethr =  7.37E-04,  avg # of iterations =  1.5

     total cpu time spent up to now is     1754.2 secs

     total energy              =    -467.86232585 Ry
     Harris-Foulkes estimate   =    -467.88577043 Ry
     estimated scf accuracy    <       0.25175709 Ry

     iteration # 10     ecut=    40.00 Ry     beta=0.60
     Davidson diagonalization with overlap
     ethr =  5.14E-04,  avg # of iterations =  2.9

     total cpu time spent up to now is     1782.1 secs

     total energy              =    -467.83367919 Ry
     Harris-Foulkes estimate   =    -467.86972813 Ry
     estimated scf accuracy    <       0.11743035 Ry

     iteration # 11     ecut=    40.00 Ry     beta=0.60
     Davidson diagonalization with overlap
     ethr =  2.40E-04,  avg # of iterations =  5.9

     total cpu time spent up to now is     1827.0 secs

     total energy              =    -467.86013147 Ry
     Harris-Foulkes estimate   =    -467.86245274 Ry
     estimated scf accuracy    <       0.01498303 Ry

     iteration # 12     ecut=    40.00 Ry     beta=0.60
     Davidson diagonalization with overlap
     ethr =  3.06E-05,  avg # of iterations =  3.9

     total cpu time spent up to now is     1858.1 secs

     total energy              =    -467.86056831 Ry
     Harris-Foulkes estimate   =    -467.86116033 Ry
     estimated scf accuracy    <       0.00227359 Ry

     iteration # 13     ecut=    40.00 Ry     beta=0.60
     Davidson diagonalization with overlap
     ethr =  4.64E-06,  avg # of iterations =  5.5

     total cpu time spent up to now is     1904.6 secs

     total energy              =    -467.86126558 Ry
     Harris-Foulkes estimate   =    -467.86189786 Ry
     estimated scf accuracy    <       0.00454827 Ry

     iteration # 14     ecut=    40.00 Ry     beta=0.60
     Davidson diagonalization with overlap
     ethr =  4.64E-06,  avg # of iterations =  1.6

     total cpu time spent up to now is     1930.1 secs

     total energy              =    -467.86139959 Ry
     Harris-Foulkes estimate   =    -467.86145206 Ry
     estimated scf accuracy    <       0.00060891 Ry

     iteration # 15     ecut=    40.00 Ry     beta=0.60
     Davidson diagonalization with overlap
     ethr =  1.24E-06,  avg # of iterations =  4.2

     total cpu time spent up to now is     1966.8 secs

     total energy              =    -467.86152302 Ry
     Harris-Foulkes estimate   =    -467.86152478 Ry
     estimated scf accuracy    <       0.00002109 Ry

     iteration # 16     ecut=    40.00 Ry     beta=0.60
     Davidson diagonalization with overlap
     ethr =  4.30E-08,  avg # of iterations =  4.4

     total cpu time spent up to now is     2002.0 secs

     total energy              =    -467.86152348 Ry
     Harris-Foulkes estimate   =    -467.86152704 Ry
     estimated scf accuracy    <       0.00001227 Ry

     iteration # 17     ecut=    40.00 Ry     beta=0.60
     Davidson diagonalization with overlap
     ethr =  2.50E-08,  avg # of iterations =  3.7

     total cpu time spent up to now is     2035.5 secs

     total energy              =    -467.86152565 Ry
     Harris-Foulkes estimate   =    -467.86152591 Ry
     estimated scf accuracy    <       0.00000395 Ry

     iteration # 18     ecut=    40.00 Ry     beta=0.60
     Davidson diagonalization with overlap
     ethr =  8.07E-09,  avg # of iterations =  1.6

     total cpu time spent up to now is     2061.3 secs

     total energy              =    -467.86152547 Ry
     Harris-Foulkes estimate   =    -467.86152579 Ry
     estimated scf accuracy    <       0.00000301 Ry

     iteration # 19     ecut=    40.00 Ry     beta=0.60
     Davidson diagonalization with overlap
     ethr =  6.13E-09,  avg # of iterations =  1.0

     total cpu time spent up to now is     2086.1 secs

     total energy              =    -467.86152546 Ry
     Harris-Foulkes estimate   =    -467.86152556 Ry
     estimated scf accuracy    <       0.00000091 Ry

     iteration # 20     ecut=    40.00 Ry     beta=0.60
     Davidson diagonalization with overlap
     ethr =  1.86E-09,  avg # of iterations =  3.9

     total cpu time spent up to now is     2119.4 secs

     total energy              =    -467.86152558 Ry
     Harris-Foulkes estimate   =    -467.86152558 Ry
     estimated scf accuracy    <          8.5E-09 Ry

     iteration # 21     ecut=    40.00 Ry     beta=0.60
     Davidson diagonalization with overlap
     ethr =  1.74E-11,  avg # of iterations =  6.0

     total cpu time spent up to now is     2172.4 secs

     total energy              =    -467.86152559 Ry
     Harris-Foulkes estimate   =    -467.86152559 Ry
     estimated scf accuracy    <          1.3E-09 Ry

     iteration # 22     ecut=    40.00 Ry     beta=0.60
     Davidson diagonalization with overlap
     ethr =  2.73E-12,  avg # of iterations =  4.4

     total cpu time spent up to now is     2209.6 secs

     total energy              =    -467.86152559 Ry
     Harris-Foulkes estimate   =    -467.86152559 Ry
     estimated scf accuracy    <          2.9E-09 Ry

     iteration # 23     ecut=    40.00 Ry     beta=0.60
     Davidson diagonalization with overlap
     ethr =  2.73E-12,  avg # of iterations =  3.9

     total cpu time spent up to now is     2243.7 secs

     total energy              =    -467.86152559 Ry
     Harris-Foulkes estimate   =    -467.86152559 Ry
     estimated scf accuracy    <          3.2E-10 Ry

     iteration # 24     ecut=    40.00 Ry     beta=0.60
     Davidson diagonalization with overlap
     ethr =  6.45E-13,  avg # of iterations =  3.7

     total cpu time spent up to now is     2277.5 secs

     total energy              =    -467.86152559 Ry
     Harris-Foulkes estimate   =    -467.86152559 Ry
     estimated scf accuracy    <          1.5E-10 Ry

     iteration # 25     ecut=    40.00 Ry     beta=0.60
     Davidson diagonalization with overlap
     ethr =  3.02E-13,  avg # of iterations =  1.1

     total cpu time spent up to now is     2302.2 secs

     End of self-consistent calculation

     Number of k-points >= 100: set verbosity='high' to print the bands.

     the Fermi energy is    13.6415 ev

!    total energy              =    -467.86152559 Ry
     Harris-Foulkes estimate   =    -467.86152559 Ry
     estimated scf accuracy    <          5.8E-11 Ry

     The total energy is the sum of the following terms:

     one-electron contribution =    -151.51201386 Ry
     hartree contribution      =      91.57133972 Ry
     xc contribution           =     -61.79812816 Ry
     ewald contribution        =    -346.11936720 Ry
     smearing contrib. (-TS)   =      -0.00335608 Ry

     convergence has been achieved in  25 iterations

     Forces acting on atoms (Ry/au):

     atom    1 type  2   force =     0.00017983    0.00010383    0.00000000
     atom    2 type  2   force =     0.00133717    0.00077202    0.00000000
     atom    3 type  2   force =     0.00035955    0.00020759    0.00000000
     atom    4 type  1   force =    -0.00187656   -0.00108343    0.00000000

     Total force =     0.002701     Total SCF correction =     0.000012


     entering subroutine stress ...

          total   stress  (Ry/bohr**3)                   (kbar)     P=  -68.94
  -0.00046080   0.00000760   0.00000000        -67.79      1.12      0.00
   0.00000760  -0.00046957   0.00000000          1.12    -69.08      0.00
   0.00000000   0.00000000  -0.00047563          0.00      0.00    -69.97


     number of scf cycles    =   2
     number of bfgs steps    =   1

     enthalpy old            =    -467.8368310659 Ry
     enthalpy new            =    -467.8615255869 Ry

     CASE: enthalpy_new < enthalpy_old

     new trust radius        =       0.1041434502 bohr
     new conv_thr            =            1.0E-10 Ry

     new unit-cell volume =    469.67102 a.u.^3 (    69.59806 Ang^3 )

CELL_PARAMETERS (alat=  1.88972599)
   1.453823662  -2.518096637   0.000000000
   0.000000000   0.000000000  -4.745811095
   4.367930099   2.521825808   0.000000000

ATOMIC_POSITIONS (angstrom)
Ti       2.911909783   0.002460932  -4.745811095
Ti       2.911991710  -1.676224538  -2.372905547
Ti       5.821461543   0.003560459  -4.745811095
Nb       4.363924456   0.840780379  -2.372905547


     NEW-OLD atomic charge density approx. for the potential
     extrapolated charge   45.69734, renormalised to   49.00000

     total cpu time spent up to now is     2318.3 secs

     per-process dynamical memory:   186.6 Mb

     Self-consistent Calculation

     iteration #  1     ecut=    40.00 Ry     beta=0.60
     Davidson diagonalization with overlap
     c_bands:  1 eigenvalues not converged
     c_bands:  1 eigenvalues not converged
     c_bands:  2 eigenvalues not converged
     c_bands:  1 eigenvalues not converged
     c_bands:  4 eigenvalues not converged
     c_bands:  3 eigenvalues not converged
     c_bands:  1 eigenvalues not converged
     c_bands:  1 eigenvalues not converged
     c_bands:  1 eigenvalues not converged
     c_bands:  1 eigenvalues not converged
     c_bands:  1 eigenvalues not converged
     c_bands:  1 eigenvalues not converged
     c_bands:  1 eigenvalues not converged
     c_bands:  1 eigenvalues not converged
     c_bands:  3 eigenvalues not converged
     c_bands:  1 eigenvalues not converged
     c_bands:  2 eigenvalues not converged
     c_bands:  1 eigenvalues not converged
     c_bands:  2 eigenvalues not converged
     c_bands:  2 eigenvalues not converged
     c_bands:  2 eigenvalues not converged
     c_bands:  2 eigenvalues not converged
     c_bands:  1 eigenvalues not converged
     c_bands:  1 eigenvalues not converged
     c_bands:  1 eigenvalues not converged
     c_bands:  1 eigenvalues not converged
     c_bands:  1 eigenvalues not converged
     c_bands:  1 eigenvalues not converged
     c_bands:  1 eigenvalues not converged
     c_bands:  1 eigenvalues not converged
     c_bands:  1 eigenvalues not converged
     c_bands:  1 eigenvalues not converged
     c_bands:  1 eigenvalues not converged
     c_bands:  1 eigenvalues not converged
     c_bands:  1 eigenvalues not converged
     c_bands:  1 eigenvalues not converged
     c_bands:  1 eigenvalues not converged
     c_bands:  2 eigenvalues not converged
     c_bands:  1 eigenvalues not converged
     c_bands:  1 eigenvalues not converged
     c_bands:  1 eigenvalues not converged
     c_bands:  1 eigenvalues not converged
     c_bands:  1 eigenvalues not converged
     c_bands:  1 eigenvalues not converged
     c_bands:  1 eigenvalues not converged
     c_bands:  1 eigenvalues not converged
     c_bands:  2 eigenvalues not converged
     c_bands:  2 eigenvalues not converged
     c_bands:  1 eigenvalues not converged
     c_bands:  1 eigenvalues not converged
     c_bands:  1 eigenvalues not converged
     c_bands:  1 eigenvalues not converged
     c_bands:  1 eigenvalues not converged
     c_bands:  1 eigenvalues not converged
     c_bands:  1 eigenvalues not converged
     c_bands:  1 eigenvalues not converged
     c_bands:  1 eigenvalues not converged
     c_bands:  1 eigenvalues not converged
     c_bands:  1 eigenvalues not converged
     c_bands:  1 eigenvalues not converged
     c_bands:  1 eigenvalues not converged
     c_bands:  1 eigenvalues not converged
     c_bands:  1 eigenvalues not converged
     c_bands:  1 eigenvalues not converged
     c_bands:  1 eigenvalues not converged
     c_bands:  1 eigenvalues not converged
     c_bands:  1 eigenvalues not converged
     c_bands:  1 eigenvalues not converged
     c_bands:  1 eigenvalues not converged
     c_bands:  1 eigenvalues not converged
     c_bands:  1 eigenvalues not converged
     c_bands:  1 eigenvalues not converged
     ethr =  1.00E-06,  avg # of iterations = 15.8

     total cpu time spent up to now is     2436.9 secs

     total energy              =    -464.16413578 Ry
     Harris-Foulkes estimate   =    -475.08154888 Ry
     estimated scf accuracy    <       3.71396058 Ry

     iteration #  2     ecut=    40.00 Ry     beta=0.60
     Davidson diagonalization with overlap
     ethr =  7.58E-03,  avg # of iterations =  5.0

     total cpu time spent up to now is     2494.0 secs

     total energy              =    -466.25344585 Ry
     Harris-Foulkes estimate   =    -473.57663536 Ry
     estimated scf accuracy    <      28.51181994 Ry

     iteration #  3     ecut=    40.00 Ry     beta=0.60
     Davidson diagonalization with overlap
     ethr =  7.58E-03,  avg # of iterations =  3.9

     total cpu time spent up to now is     2530.8 secs

     total energy              =    -467.81871694 Ry
     Harris-Foulkes estimate   =    -468.77424195 Ry
     estimated scf accuracy    <       3.19036990 Ry

     iteration #  4     ecut=    40.00 Ry     beta=0.60
     Davidson diagonalization with overlap
     ethr =  6.51E-03,  avg # of iterations =  3.0

     total cpu time spent up to now is     2560.1 secs

     total energy              =    -467.97276152 Ry
     Harris-Foulkes estimate   =    -468.26036505 Ry
     estimated scf accuracy    <       2.39461169 Ry

     iteration #  5     ecut=    40.00 Ry     beta=0.60
     Davidson diagonalization with overlap
     ethr =  4.89E-03,  avg # of iterations =  1.1

     total cpu time spent up to now is     2584.9 secs

     total energy              =    -467.92894890 Ry
     Harris-Foulkes estimate   =    -468.04390030 Ry
     estimated scf accuracy    <       1.29582993 Ry

     iteration #  6     ecut=    40.00 Ry     beta=0.60
     Davidson diagonalization with overlap
     ethr =  2.64E-03,  avg # of iterations =  1.1

     total cpu time spent up to now is     2609.8 secs

     total energy              =    -467.90266004 Ry
     Harris-Foulkes estimate   =    -467.95472534 Ry
     estimated scf accuracy    <       0.76020238 Ry

     iteration #  7     ecut=    40.00 Ry     beta=0.60
     Davidson diagonalization with overlap
     ethr =  1.55E-03,  avg # of iterations =  1.3

     total cpu time spent up to now is     2635.0 secs

     total energy              =    -467.85546499 Ry
     Harris-Foulkes estimate   =    -467.91796504 Ry
     estimated scf accuracy    <       0.49539414 Ry

     iteration #  8     ecut=    40.00 Ry     beta=0.60
     Davidson diagonalization with overlap
     ethr =  1.01E-03,  avg # of iterations =  3.6

     total cpu time spent up to now is     2664.8 secs

     total energy              =    -467.88113638 Ry
     Harris-Foulkes estimate   =    -467.87904123 Ry
     estimated scf accuracy    <       0.16247755 Ry

     iteration #  9     ecut=    40.00 Ry     beta=0.60
     Davidson diagonalization with overlap
     ethr =  3.32E-04,  avg # of iterations =  5.3

     total cpu time spent up to now is     2699.6 secs

     total energy              =    -467.88386702 Ry
     Harris-Foulkes estimate   =    -467.89051135 Ry
     estimated scf accuracy    <       0.14005789 Ry

     iteration # 10     ecut=    40.00 Ry     beta=0.60
     Davidson diagonalization with overlap
     ethr =  2.86E-04,  avg # of iterations =  1.1

     total cpu time spent up to now is     2724.6 secs

     total energy              =    -467.85083246 Ry
     Harris-Foulkes estimate   =    -467.88520293 Ry
     estimated scf accuracy    <       0.11155044 Ry

     iteration # 11     ecut=    40.00 Ry     beta=0.60
     Davidson diagonalization with overlap
     ethr =  2.28E-04,  avg # of iterations =  4.0

     total cpu time spent up to now is     2759.6 secs

     total energy              =    -467.86709267 Ry
     Harris-Foulkes estimate   =    -467.86701993 Ry
     estimated scf accuracy    <       0.00096534 Ry

     iteration # 12     ecut=    40.00 Ry     beta=0.60
     Davidson diagonalization with overlap
     c_bands:  1 eigenvalues not converged
     c_bands:  1 eigenvalues not converged
     c_bands:  1 eigenvalues not converged
     c_bands:  2 eigenvalues not converged
     c_bands:  1 eigenvalues not converged
     c_bands:  1 eigenvalues not converged
     c_bands:  1 eigenvalues not converged
     c_bands:  2 eigenvalues not converged
     c_bands:  1 eigenvalues not converged
     c_bands:  1 eigenvalues not converged
     c_bands:  1 eigenvalues not converged
     c_bands:  1 eigenvalues not converged
     c_bands:  1 eigenvalues not converged
     c_bands:  1 eigenvalues not converged
     c_bands:  2 eigenvalues not converged
     c_bands:  1 eigenvalues not converged
     c_bands:  1 eigenvalues not converged
     c_bands:  2 eigenvalues not converged
     c_bands:  1 eigenvalues not converged
     c_bands:  1 eigenvalues not converged
     c_bands:  1 eigenvalues not converged
     c_bands:  1 eigenvalues not converged
     c_bands:  1 eigenvalues not converged
     c_bands:  1 eigenvalues not converged
     c_bands:  2 eigenvalues not converged
     c_bands:  1 eigenvalues not converged
     c_bands:  1 eigenvalues not converged
     c_bands:  1 eigenvalues not converged
     c_bands:  1 eigenvalues not converged
     c_bands:  1 eigenvalues not converged
     c_bands:  1 eigenvalues not converged
     c_bands:  1 eigenvalues not converged
     c_bands:  1 eigenvalues not converged
     c_bands:  1 eigenvalues not converged
     c_bands:  1 eigenvalues not converged
     c_bands:  1 eigenvalues not converged
     c_bands:  1 eigenvalues not converged
     c_bands:  2 eigenvalues not converged
     c_bands:  1 eigenvalues not converged
     c_bands:  1 eigenvalues not converged
     c_bands:  1 eigenvalues not converged
     c_bands:  1 eigenvalues not converged
     c_bands:  1 eigenvalues not converged
     c_bands:  1 eigenvalues not converged
     c_bands:  1 eigenvalues not converged
     c_bands:  1 eigenvalues not converged
     c_bands:  1 eigenvalues not converged
     ethr =  1.97E-06,  avg # of iterations = 10.8

     total cpu time spent up to now is     2829.3 secs

     total energy              =    -467.86839117 Ry
     Harris-Foulkes estimate   =    -467.86852902 Ry
     estimated scf accuracy    <       0.00186926 Ry

     iteration # 13     ecut=    40.00 Ry     beta=0.60
     Davidson diagonalization with overlap
     ethr =  1.97E-06,  avg # of iterations =  1.4

     total cpu time spent up to now is     2854.7 secs

     total energy              =    -467.86827801 Ry
     Harris-Foulkes estimate   =    -467.86843098 Ry
     estimated scf accuracy    <       0.00108218 Ry

     iteration # 14     ecut=    40.00 Ry     beta=0.60
     Davidson diagonalization with overlap
     ethr =  1.97E-06,  avg # of iterations =  2.7

     total cpu time spent up to now is     2883.1 secs

     total energy              =    -467.86833755 Ry
     Harris-Foulkes estimate   =    -467.86834331 Ry
     estimated scf accuracy    <       0.00015985 Ry

     iteration # 15     ecut=    40.00 Ry     beta=0.60
     Davidson diagonalization with overlap
     ethr =  3.26E-07,  avg # of iterations =  3.1

     total cpu time spent up to now is     2913.1 secs

     total energy              =    -467.86835141 Ry
     Harris-Foulkes estimate   =    -467.86834841 Ry
     estimated scf accuracy    <       0.00008240 Ry

     iteration # 16     ecut=    40.00 Ry     beta=0.60
     Davidson diagonalization with overlap
     ethr =  1.68E-07,  avg # of iterations =  1.1

     total cpu time spent up to now is     2938.0 secs

     total energy              =    -467.86833338 Ry
     Harris-Foulkes estimate   =    -467.86835352 Ry
     estimated scf accuracy    <       0.00010604 Ry

     iteration # 17     ecut=    40.00 Ry     beta=0.60
     Davidson diagonalization with overlap
     ethr =  1.68E-07,  avg # of iterations =  3.1

     total cpu time spent up to now is     2967.5 secs

     total energy              =    -467.86833991 Ry
     Harris-Foulkes estimate   =    -467.86834099 Ry
     estimated scf accuracy    <       0.00001028 Ry

     iteration # 18     ecut=    40.00 Ry     beta=0.60
     Davidson diagonalization with overlap
     ethr =  2.10E-08,  avg # of iterations =  4.5

     total cpu time spent up to now is     3004.8 secs

     total energy              =    -467.86834275 Ry
     Harris-Foulkes estimate   =    -467.86834299 Ry
     estimated scf accuracy    <       0.00000158 Ry

     iteration # 19     ecut=    40.00 Ry     beta=0.60
     Davidson diagonalization with overlap
     ethr =  3.22E-09,  avg # of iterations =  3.0

     total cpu time spent up to now is     3034.5 secs

     total energy              =    -467.86834285 Ry
     Harris-Foulkes estimate   =    -467.86834293 Ry
     estimated scf accuracy    <       0.00000028 Ry

     iteration # 20     ecut=    40.00 Ry     beta=0.60
     Davidson diagonalization with overlap
     ethr =  5.68E-10,  avg # of iterations =  4.4

     total cpu time spent up to now is     3072.2 secs

     total energy              =    -467.86834291 Ry
     Harris-Foulkes estimate   =    -467.86834295 Ry
     estimated scf accuracy    <       0.00000031 Ry

     iteration # 21     ecut=    40.00 Ry     beta=0.60
     Davidson diagonalization with overlap
     ethr =  5.68E-10,  avg # of iterations =  1.0

     total cpu time spent up to now is     3097.0 secs

     total energy              =    -467.86834291 Ry
     Harris-Foulkes estimate   =    -467.86834292 Ry
     estimated scf accuracy    <       0.00000003 Ry

     iteration # 22     ecut=    40.00 Ry     beta=0.60
     Davidson diagonalization with overlap
     ethr =  7.13E-11,  avg # of iterations =  4.5

     total cpu time spent up to now is     3135.1 secs

     total energy              =    -467.86834293 Ry
     Harris-Foulkes estimate   =    -467.86834293 Ry
     estimated scf accuracy    <       0.00000002 Ry

     iteration # 23     ecut=    40.00 Ry     beta=0.60
     Davidson diagonalization with overlap
     ethr =  4.08E-11,  avg # of iterations =  1.0

     total cpu time spent up to now is     3159.9 secs

     total energy              =    -467.86834293 Ry
     Harris-Foulkes estimate   =    -467.86834293 Ry
     estimated scf accuracy    <       0.00000001 Ry

     iteration # 24     ecut=    40.00 Ry     beta=0.60
     Davidson diagonalization with overlap
     ethr =  2.43E-11,  avg # of iterations =  1.7

     total cpu time spent up to now is     3185.7 secs

     total energy              =    -467.86834293 Ry
     Harris-Foulkes estimate   =    -467.86834293 Ry
     estimated scf accuracy    <          2.8E-09 Ry

     iteration # 25     ecut=    40.00 Ry     beta=0.60
     Davidson diagonalization with overlap
     ethr =  5.79E-12,  avg # of iterations =  4.1

     total cpu time spent up to now is     3220.1 secs

     End of self-consistent calculation

     Number of k-points >= 100: set verbosity='high' to print the bands.

     the Fermi energy is    14.7986 ev

!    total energy              =    -467.86834293 Ry
     Harris-Foulkes estimate   =    -467.86834293 Ry
     estimated scf accuracy    <          4.5E-11 Ry

     The total energy is the sum of the following terms:

     one-electron contribution =    -139.57157290 Ry
     hartree contribution      =      87.94990377 Ry
     xc contribution           =     -62.03153172 Ry
     ewald contribution        =    -354.21190649 Ry
     smearing contrib. (-TS)   =      -0.00323559 Ry

     convergence has been achieved in  25 iterations

     Forces acting on atoms (Ry/au):

     atom    1 type  2   force =    -0.00147868   -0.00085372    0.00000000
     atom    2 type  2   force =     0.00040931    0.00023632    0.00000000
     atom    3 type  2   force =     0.00229465    0.00132481    0.00000000
     atom    4 type  1   force =    -0.00122527   -0.00070741    0.00000000

     Total force =     0.003487     Total SCF correction =     0.000011


     entering subroutine stress ...

          total   stress  (Ry/bohr**3)                   (kbar)     P=   13.89
   0.00009100   0.00000386   0.00000000         13.39      0.57      0.00
   0.00000386   0.00008654   0.00000000          0.57     12.73      0.00
   0.00000000   0.00000000   0.00010569          0.00      0.00     15.55


     number of scf cycles    =   3
     number of bfgs steps    =   2

     enthalpy old            =    -467.8615255869 Ry
     enthalpy new            =    -467.8683429256 Ry

     CASE: enthalpy_new < enthalpy_old

     new trust radius        =       0.0173859536 bohr
     new conv_thr            =            1.0E-10 Ry

     new unit-cell volume =    474.97722 a.u.^3 (    70.38436 Ang^3 )

CELL_PARAMETERS (alat=  1.88972599)
   1.459017112  -2.527091957   0.000000000
   0.000000000   0.000000000  -4.764847375
   4.383969261   2.531086022   0.000000000

ATOMIC_POSITIONS (angstrom)
Ti       2.921913196   0.002239525  -4.764847375
Ti       2.922600903  -1.682093083  -2.382423687
Ti       5.843599746   0.004348196  -4.764847375
Nb       4.379525109   0.843790533  -2.382423687


     NEW-OLD atomic charge density approx. for the potential
     extrapolated charge   49.51386, renormalised to   49.00000

     total cpu time spent up to now is     3236.2 secs

     per-process dynamical memory:   186.6 Mb

     Self-consistent Calculation

     iteration #  1     ecut=    40.00 Ry     beta=0.60
     Davidson diagonalization with overlap
     c_bands:  1 eigenvalues not converged
     c_bands:  1 eigenvalues not converged
     ethr =  1.00E-06,  avg # of iterations =  8.7

     total cpu time spent up to now is     3304.6 secs

     total energy              =    -467.82830358 Ry
     Harris-Foulkes estimate   =    -466.80972047 Ry
     estimated scf accuracy    <       0.03449746 Ry

     iteration #  2     ecut=    40.00 Ry     beta=0.60
     Davidson diagonalization with overlap
     ethr =  7.04E-05,  avg # of iterations =  5.3

     total cpu time spent up to now is     3362.8 secs

     total energy              =    -467.82428829 Ry
     Harris-Foulkes estimate   =    -467.92741866 Ry
     estimated scf accuracy    <       0.56246569 Ry

     iteration #  3     ecut=    40.00 Ry     beta=0.60
     Davidson diagonalization with overlap
     ethr =  7.04E-05,  avg # of iterations =  4.9

     total cpu time spent up to now is     3409.4 secs

     total energy              =    -467.86166291 Ry
     Harris-Foulkes estimate   =    -467.88074015 Ry
     estimated scf accuracy    <       0.07955836 Ry

     iteration #  4     ecut=    40.00 Ry     beta=0.60
     Davidson diagonalization with overlap
     ethr =  7.04E-05,  avg # of iterations =  4.4

     total cpu time spent up to now is     3445.7 secs

     total energy              =    -467.86674528 Ry
     Harris-Foulkes estimate   =    -467.87539353 Ry
     estimated scf accuracy    <       0.07631717 Ry

     iteration #  5     ecut=    40.00 Ry     beta=0.60
     Davidson diagonalization with overlap
     ethr =  7.04E-05,  avg # of iterations =  1.1

     total cpu time spent up to now is     3470.6 secs

     total energy              =    -467.86943187 Ry
     Harris-Foulkes estimate   =    -467.86973217 Ry
     estimated scf accuracy    <       0.01368188 Ry

     iteration #  6     ecut=    40.00 Ry     beta=0.60
     Davidson diagonalization with overlap
     ethr =  2.79E-05,  avg # of iterations =  3.6

     total cpu time spent up to now is     3500.6 secs

     total energy              =    -467.86936385 Ry
     Harris-Foulkes estimate   =    -467.87026372 Ry
     estimated scf accuracy    <       0.00895362 Ry

     iteration #  7     ecut=    40.00 Ry     beta=0.60
     Davidson diagonalization with overlap
     ethr =  1.83E-05,  avg # of iterations =  1.8

     total cpu time spent up to now is     3526.5 secs

     total energy              =    -467.86881426 Ry
     Harris-Foulkes estimate   =    -467.86956981 Ry
     estimated scf accuracy    <       0.00601408 Ry

     iteration #  8     ecut=    40.00 Ry     beta=0.60
     Davidson diagonalization with overlap
     ethr =  1.23E-05,  avg # of iterations =  2.2

     total cpu time spent up to now is     3553.6 secs

     total energy              =    -467.86856652 Ry
     Harris-Foulkes estimate   =    -467.86902478 Ry
     estimated scf accuracy    <       0.00292033 Ry

     iteration #  9     ecut=    40.00 Ry     beta=0.60
     Davidson diagonalization with overlap
     ethr =  5.96E-06,  avg # of iterations =  2.6

     total cpu time spent up to now is     3581.2 secs

     total energy              =    -467.86844727 Ry
     Harris-Foulkes estimate   =    -467.86868349 Ry
     estimated scf accuracy    <       0.00113343 Ry

     iteration # 10     ecut=    40.00 Ry     beta=0.60
     Davidson diagonalization with overlap
     ethr =  2.31E-06,  avg # of iterations =  4.2

     total cpu time spent up to now is     3616.7 secs

     total energy              =    -467.86855254 Ry
     Harris-Foulkes estimate   =    -467.86859321 Ry
     estimated scf accuracy    <       0.00007513 Ry

     iteration # 11     ecut=    40.00 Ry     beta=0.60
     Davidson diagonalization with overlap
     ethr =  1.53E-07,  avg # of iterations =  4.7

     total cpu time spent up to now is     3661.2 secs

     total energy              =    -467.86858585 Ry
     Harris-Foulkes estimate   =    -467.86858914 Ry
     estimated scf accuracy    <       0.00005869 Ry

     iteration # 12     ecut=    40.00 Ry     beta=0.60
     Davidson diagonalization with overlap
     ethr =  1.20E-07,  avg # of iterations =  1.0

     total cpu time spent up to now is     3686.0 secs

     total energy              =    -467.86858204 Ry
     Harris-Foulkes estimate   =    -467.86858674 Ry
     estimated scf accuracy    <       0.00003524 Ry

     iteration # 13     ecut=    40.00 Ry     beta=0.60
     Davidson diagonalization with overlap
     ethr =  7.19E-08,  avg # of iterations =  2.0

     total cpu time spent up to now is     3712.5 secs

     total energy              =    -467.86858306 Ry
     Harris-Foulkes estimate   =    -467.86858359 Ry
     estimated scf accuracy    <       0.00000782 Ry

     iteration # 14     ecut=    40.00 Ry     beta=0.60
     Davidson diagonalization with overlap
     ethr =  1.60E-08,  avg # of iterations =  3.9

     total cpu time spent up to now is     3746.8 secs

     total energy              =    -467.86858375 Ry
     Harris-Foulkes estimate   =    -467.86858412 Ry
     estimated scf accuracy    <       0.00000362 Ry

     iteration # 15     ecut=    40.00 Ry     beta=0.60
     Davidson diagonalization with overlap
     ethr =  7.39E-09,  avg # of iterations =  1.1

     total cpu time spent up to now is     3771.8 secs

     total energy              =    -467.86858370 Ry
     Harris-Foulkes estimate   =    -467.86858384 Ry
     estimated scf accuracy    <       0.00000237 Ry

     iteration # 16     ecut=    40.00 Ry     beta=0.60
     Davidson diagonalization with overlap
     ethr =  4.84E-09,  avg # of iterations =  1.1

     total cpu time spent up to now is     3796.7 secs

     total energy              =    -467.86858363 Ry
     Harris-Foulkes estimate   =    -467.86858374 Ry
     estimated scf accuracy    <       0.00000158 Ry

     iteration # 17     ecut=    40.00 Ry     beta=0.60
     Davidson diagonalization with overlap
     ethr =  3.23E-09,  avg # of iterations =  1.0

     total cpu time spent up to now is     3821.5 secs

     total energy              =    -467.86858353 Ry
     Harris-Foulkes estimate   =    -467.86858365 Ry
     estimated scf accuracy    <       0.00000090 Ry

     iteration # 18     ecut=    40.00 Ry     beta=0.60
     Davidson diagonalization with overlap
     ethr =  1.83E-09,  avg # of iterations =  3.2

     total cpu time spent up to now is     3851.3 secs

     total energy              =    -467.86858358 Ry
     Harris-Foulkes estimate   =    -467.86858360 Ry
     estimated scf accuracy    <       0.00000010 Ry

     iteration # 19     ecut=    40.00 Ry     beta=0.60
     Davidson diagonalization with overlap
     ethr =  2.02E-10,  avg # of iterations =  4.5

     total cpu time spent up to now is     3889.6 secs

     total energy              =    -467.86858360 Ry
     Harris-Foulkes estimate   =    -467.86858361 Ry
     estimated scf accuracy    <       0.00000007 Ry

     iteration # 20     ecut=    40.00 Ry     beta=0.60
     Davidson diagonalization with overlap
     ethr =  1.35E-10,  avg # of iterations =  1.0

     total cpu time spent up to now is     3914.4 secs

     total energy              =    -467.86858360 Ry
     Harris-Foulkes estimate   =    -467.86858360 Ry
     estimated scf accuracy    <       0.00000004 Ry

     iteration # 21     ecut=    40.00 Ry     beta=0.60
     Davidson diagonalization with overlap
     ethr =  8.10E-11,  avg # of iterations =  2.0

     total cpu time spent up to now is     3941.0 secs

     total energy              =    -467.86858360 Ry
     Harris-Foulkes estimate   =    -467.86858360 Ry
     estimated scf accuracy    <          4.1E-09 Ry

     iteration # 22     ecut=    40.00 Ry     beta=0.60
     Davidson diagonalization with overlap
     ethr =  8.43E-12,  avg # of iterations =  4.8

     total cpu time spent up to now is     3981.0 secs

     total energy              =    -467.86858360 Ry
     Harris-Foulkes estimate   =    -467.86858360 Ry
     estimated scf accuracy    <          3.3E-09 Ry

     iteration # 23     ecut=    40.00 Ry     beta=0.60
     Davidson diagonalization with overlap
     ethr =  6.67E-12,  avg # of iterations =  1.0

     total cpu time spent up to now is     4005.8 secs

     total energy              =    -467.86858360 Ry
     Harris-Foulkes estimate   =    -467.86858360 Ry
     estimated scf accuracy    <          7.0E-10 Ry

     iteration # 24     ecut=    40.00 Ry     beta=0.60
     Davidson diagonalization with overlap
     ethr =  1.43E-12,  avg # of iterations =  4.0

     total cpu time spent up to now is     4041.3 secs

     total energy              =    -467.86858360 Ry
     Harris-Foulkes estimate   =    -467.86858360 Ry
     estimated scf accuracy    <          3.4E-10 Ry

     iteration # 25     ecut=    40.00 Ry     beta=0.60
     Davidson diagonalization with overlap
     ethr =  6.98E-13,  avg # of iterations =  2.0

     total cpu time spent up to now is     4067.7 secs

     End of self-consistent calculation

     Number of k-points >= 100: set verbosity='high' to print the bands.

     the Fermi energy is    14.6062 ev

!    total energy              =    -467.86858360 Ry
     Harris-Foulkes estimate   =    -467.86858360 Ry
     estimated scf accuracy    <          2.7E-12 Ry

     The total energy is the sum of the following terms:

     one-electron contribution =    -141.51526906 Ry
     hartree contribution      =      88.53204610 Ry
     xc contribution           =     -61.99237994 Ry
     ewald contribution        =    -352.88972172 Ry
     smearing contrib. (-TS)   =      -0.00325898 Ry

     convergence has been achieved in  25 iterations

     Forces acting on atoms (Ry/au):

     atom    1 type  2   force =    -0.00087513   -0.00050526    0.00000000
     atom    2 type  2   force =     0.00043893    0.00025342    0.00000000
     atom    3 type  2   force =     0.00172120    0.00099374    0.00000000
     atom    4 type  1   force =    -0.00128501   -0.00074190    0.00000000

     Total force =     0.002726     Total SCF correction =     0.000002


     entering subroutine stress ...

          total   stress  (Ry/bohr**3)                   (kbar)     P=   -0.96
  -0.00000701   0.00000438   0.00000000         -1.03      0.64      0.00
   0.00000438  -0.00001207   0.00000000          0.64     -1.78      0.00
   0.00000000   0.00000000  -0.00000043          0.00      0.00     -0.06


     number of scf cycles    =   4
     number of bfgs steps    =   3

     enthalpy old            =    -467.8683429256 Ry
     enthalpy new            =    -467.8685836009 Ry

     CASE: enthalpy_new < enthalpy_old

     new trust radius        =       0.0018035971 bohr
     new conv_thr            =            1.0E-10 Ry

     new unit-cell volume =    474.68858 a.u.^3 (    70.34159 Ang^3 )

CELL_PARAMETERS (alat=  1.88972599)
   1.458441401  -2.526094797   0.000000000
   0.000000000   0.000000000  -4.764565261
   4.383294110   2.530696224   0.000000000

ATOMIC_POSITIONS (angstrom)
Ti       2.920865474   0.002299396  -4.764565261
Ti       2.922014210  -1.681102263  -2.382282631
Ti       5.843175217   0.005432641  -4.764565261
Nb       4.378056517   0.843607416  -2.382282631


     NEW-OLD atomic charge density approx. for the potential
     extrapolated charge   48.97203, renormalised to   49.00000

     total cpu time spent up to now is     4083.8 secs

     per-process dynamical memory:   186.6 Mb

     Self-consistent Calculation

     iteration #  1     ecut=    40.00 Ry     beta=0.60
     Davidson diagonalization with overlap
     ethr =  1.00E-06,  avg # of iterations =  3.0

     total cpu time spent up to now is     4126.6 secs

     total energy              =    -467.86845559 Ry
     Harris-Foulkes estimate   =    -467.92658727 Ry
     estimated scf accuracy    <       0.00012639 Ry

     iteration #  2     ecut=    40.00 Ry     beta=0.60
     Davidson diagonalization with overlap
     ethr =  2.58E-07,  avg # of iterations =  5.1

     total cpu time spent up to now is     4183.2 secs

     total energy              =    -467.86838593 Ry
     Harris-Foulkes estimate   =    -467.86885106 Ry
     estimated scf accuracy    <       0.00281085 Ry

     iteration #  3     ecut=    40.00 Ry     beta=0.60
     Davidson diagonalization with overlap
     ethr =  2.58E-07,  avg # of iterations =  5.2

     total cpu time spent up to now is     4226.4 secs

     total energy              =    -467.86857221 Ry
     Harris-Foulkes estimate   =    -467.86862813 Ry
     estimated scf accuracy    <       0.00021889 Ry

     iteration #  4     ecut=    40.00 Ry     beta=0.60
     Davidson diagonalization with overlap
     ethr =  2.58E-07,  avg # of iterations =  4.3

     total cpu time spent up to now is     4261.4 secs

     total energy              =    -467.86858315 Ry
     Harris-Foulkes estimate   =    -467.86861443 Ry
     estimated scf accuracy    <       0.00023236 Ry

     iteration #  5     ecut=    40.00 Ry     beta=0.60
     Davidson diagonalization with overlap
     ethr =  2.58E-07,  avg # of iterations =  1.2

     total cpu time spent up to now is     4286.5 secs

     total energy              =    -467.86859340 Ry
     Harris-Foulkes estimate   =    -467.86859477 Ry
     estimated scf accuracy    <       0.00003453 Ry

     iteration #  6     ecut=    40.00 Ry     beta=0.60
     Davidson diagonalization with overlap
     ethr =  7.05E-08,  avg # of iterations =  3.9

     total cpu time spent up to now is     4319.1 secs

     total energy              =    -467.86859163 Ry
     Harris-Foulkes estimate   =    -467.86859736 Ry
     estimated scf accuracy    <       0.00002416 Ry

     iteration #  7     ecut=    40.00 Ry     beta=0.60
     Davidson diagonalization with overlap
     ethr =  4.93E-08,  avg # of iterations =  1.9

     total cpu time spent up to now is     4345.5 secs

     total energy              =    -467.86859128 Ry
     Harris-Foulkes estimate   =    -467.86859278 Ry
     estimated scf accuracy    <       0.00000859 Ry

     iteration #  8     ecut=    40.00 Ry     beta=0.60
     Davidson diagonalization with overlap
     ethr =  1.75E-08,  avg # of iterations =  2.9

     total cpu time spent up to now is     4375.9 secs

     total energy              =    -467.86859196 Ry
     Harris-Foulkes estimate   =    -467.86859224 Ry
     estimated scf accuracy    <       0.00000160 Ry

     iteration #  9     ecut=    40.00 Ry     beta=0.60
     Davidson diagonalization with overlap
     ethr =  3.27E-09,  avg # of iterations =  4.0

     total cpu time spent up to now is     4410.7 secs

     total energy              =    -467.86859221 Ry
     Harris-Foulkes estimate   =    -467.86859222 Ry
     estimated scf accuracy    <       0.00000008 Ry

     iteration # 10     ecut=    40.00 Ry     beta=0.60
     Davidson diagonalization with overlap
     ethr =  1.54E-10,  avg # of iterations =  4.2

     total cpu time spent up to now is     4446.8 secs

     total energy              =    -467.86859223 Ry
     Harris-Foulkes estimate   =    -467.86859223 Ry
     estimated scf accuracy    <          6.9E-09 Ry

     iteration # 11     ecut=    40.00 Ry     beta=0.60
     Davidson diagonalization with overlap
     ethr =  1.40E-11,  avg # of iterations =  4.6

     total cpu time spent up to now is     4490.5 secs

     total energy              =    -467.86859223 Ry
     Harris-Foulkes estimate   =    -467.86859223 Ry
     estimated scf accuracy    <          7.0E-09 Ry

     iteration # 12     ecut=    40.00 Ry     beta=0.60
     Davidson diagonalization with overlap
     ethr =  1.40E-11,  avg # of iterations =  1.0

     total cpu time spent up to now is     4515.3 secs

     total energy              =    -467.86859223 Ry
     Harris-Foulkes estimate   =    -467.86859223 Ry
     estimated scf accuracy    <          2.2E-09 Ry

     iteration # 13     ecut=    40.00 Ry     beta=0.60
     Davidson diagonalization with overlap
     ethr =  4.56E-12,  avg # of iterations =  3.6

     total cpu time spent up to now is     4546.5 secs

     total energy              =    -467.86859223 Ry
     Harris-Foulkes estimate   =    -467.86859223 Ry
     estimated scf accuracy    <          3.0E-10 Ry

     iteration # 14     ecut=    40.00 Ry     beta=0.60
     Davidson diagonalization with overlap
     ethr =  6.18E-13,  avg # of iterations =  3.8

     total cpu time spent up to now is     4580.1 secs

     End of self-consistent calculation

     Number of k-points >= 100: set verbosity='high' to print the bands.

     the Fermi energy is    14.6163 ev

!    total energy              =    -467.86859223 Ry
     Harris-Foulkes estimate   =    -467.86859223 Ry
     estimated scf accuracy    <          8.9E-11 Ry

     The total energy is the sum of the following terms:

     one-electron contribution =    -141.40799691 Ry
     hartree contribution      =      88.49954932 Ry
     xc contribution           =     -61.99448175 Ry
     ewald contribution        =    -352.96240580 Ry
     smearing contrib. (-TS)   =      -0.00325710 Ry

     convergence has been achieved in  14 iterations

     Forces acting on atoms (Ry/au):

     atom    1 type  2   force =    -0.00063811   -0.00036842    0.00000000
     atom    2 type  2   force =     0.00029325    0.00016931    0.00000000
     atom    3 type  2   force =     0.00156116    0.00090133    0.00000000
     atom    4 type  1   force =    -0.00121629   -0.00070223    0.00000000

     Total force =     0.002425     Total SCF correction =     0.000007


     entering subroutine stress ...

          total   stress  (Ry/bohr**3)                   (kbar)     P=   -0.17
  -0.00000123   0.00000422   0.00000000         -0.18      0.62      0.00
   0.00000422  -0.00000611   0.00000000          0.62     -0.90      0.00
   0.00000000   0.00000000   0.00000395          0.00      0.00      0.58


     number of scf cycles    =   5
     number of bfgs steps    =   4

     enthalpy old            =    -467.8685836009 Ry
     enthalpy new            =    -467.8685922328 Ry

     CASE: enthalpy_new < enthalpy_old

     new trust radius        =       0.0027049791 bohr
     new conv_thr            =            1.0E-10 Ry

     new unit-cell volume =    474.54543 a.u.^3 (    70.32038 Ang^3 )

CELL_PARAMETERS (alat=  1.88972599)
   1.457873152  -2.525110560   0.000000000
   0.000000000   0.000000000  -4.765063146
   4.383222267   2.530654745   0.000000000

ATOMIC_POSITIONS (angstrom)
Ti       2.919996129   0.002453637  -4.765063146
Ti       2.921682411  -1.679981511  -2.382531573
Ti       5.843774720   0.007091080  -4.765063146
Nb       4.376761827   0.843516085  -2.382531573


     NEW-OLD atomic charge density approx. for the potential
     extrapolated charge   48.98613, renormalised to   49.00000

     total cpu time spent up to now is     4596.2 secs

     per-process dynamical memory:   186.8 Mb

     Self-consistent Calculation

     iteration #  1     ecut=    40.00 Ry     beta=0.60
     Davidson diagonalization with overlap
     ethr =  1.00E-06,  avg # of iterations =  3.0

     total cpu time spent up to now is     4641.0 secs

     total energy              =    -467.86854898 Ry
     Harris-Foulkes estimate   =    -467.89735808 Ry
     estimated scf accuracy    <       0.00005897 Ry

     iteration #  2     ecut=    40.00 Ry     beta=0.60
     Davidson diagonalization with overlap
     ethr =  1.20E-07,  avg # of iterations =  5.2

     total cpu time spent up to now is     4694.9 secs

     total energy              =    -467.86846686 Ry
     Harris-Foulkes estimate   =    -467.86875246 Ry
     estimated scf accuracy    <       0.00196742 Ry

     iteration #  3     ecut=    40.00 Ry     beta=0.60
     Davidson diagonalization with overlap
     ethr =  1.20E-07,  avg # of iterations =  5.3

     total cpu time spent up to now is     4739.1 secs

     total energy              =    -467.86858977 Ry
     Harris-Foulkes estimate   =    -467.86861453 Ry
     estimated scf accuracy    <       0.00011939 Ry

     iteration #  4     ecut=    40.00 Ry     beta=0.60
     Davidson diagonalization with overlap
     ethr =  1.20E-07,  avg # of iterations =  4.1

     total cpu time spent up to now is     4773.0 secs

     total energy              =    -467.86859767 Ry
     Harris-Foulkes estimate   =    -467.86860816 Ry
     estimated scf accuracy    <       0.00006146 Ry

     iteration #  5     ecut=    40.00 Ry     beta=0.60
     Davidson diagonalization with overlap
     ethr =  1.20E-07,  avg # of iterations =  1.1

     total cpu time spent up to now is     4797.8 secs

     total energy              =    -467.86860113 Ry
     Harris-Foulkes estimate   =    -467.86860208 Ry
     estimated scf accuracy    <       0.00000750 Ry

     iteration #  6     ecut=    40.00 Ry     beta=0.60
     Davidson diagonalization with overlap
     ethr =  1.53E-08,  avg # of iterations =  4.0

     total cpu time spent up to now is     4833.0 secs

     total energy              =    -467.86860134 Ry
     Harris-Foulkes estimate   =    -467.86860267 Ry
     estimated scf accuracy    <       0.00000478 Ry

     iteration #  7     ecut=    40.00 Ry     beta=0.60
     Davidson diagonalization with overlap
     ethr =  9.75E-09,  avg # of iterations =  2.6

     total cpu time spent up to now is     4861.6 secs

     total energy              =    -467.86860160 Ry
     Harris-Foulkes estimate   =    -467.86860174 Ry
     estimated scf accuracy    <       0.00000103 Ry

     iteration #  8     ecut=    40.00 Ry     beta=0.60
     Davidson diagonalization with overlap
     ethr =  2.10E-09,  avg # of iterations =  3.6

     total cpu time spent up to now is     4894.6 secs

     total energy              =    -467.86860177 Ry
     Harris-Foulkes estimate   =    -467.86860178 Ry
     estimated scf accuracy    <       0.00000008 Ry

     iteration #  9     ecut=    40.00 Ry     beta=0.60
     Davidson diagonalization with overlap
     ethr =  1.55E-10,  avg # of iterations =  4.7

     total cpu time spent up to now is     4932.3 secs

     total energy              =    -467.86860179 Ry
     Harris-Foulkes estimate   =    -467.86860179 Ry
     estimated scf accuracy    <       0.00000001 Ry

     iteration # 10     ecut=    40.00 Ry     beta=0.60
     Davidson diagonalization with overlap
     ethr =  2.93E-11,  avg # of iterations =  4.5

     total cpu time spent up to now is     4969.5 secs

     total energy              =    -467.86860179 Ry
     Harris-Foulkes estimate   =    -467.86860179 Ry
     estimated scf accuracy    <       0.00000001 Ry

     iteration # 11     ecut=    40.00 Ry     beta=0.60
     Davidson diagonalization with overlap
     ethr =  2.93E-11,  avg # of iterations =  1.0

     total cpu time spent up to now is     4994.2 secs

     total energy              =    -467.86860179 Ry
     Harris-Foulkes estimate   =    -467.86860179 Ry
     estimated scf accuracy    <          2.8E-09 Ry

     iteration # 12     ecut=    40.00 Ry     beta=0.60
     Davidson diagonalization with overlap
     ethr =  5.69E-12,  avg # of iterations =  4.3

     total cpu time spent up to now is     5029.6 secs

     total energy              =    -467.86860179 Ry
     Harris-Foulkes estimate   =    -467.86860179 Ry
     estimated scf accuracy    <          2.0E-09 Ry

     iteration # 13     ecut=    40.00 Ry     beta=0.60
     Davidson diagonalization with overlap
     ethr =  4.10E-12,  avg # of iterations =  1.0

     total cpu time spent up to now is     5054.4 secs

     total energy              =    -467.86860179 Ry
     Harris-Foulkes estimate   =    -467.86860179 Ry
     estimated scf accuracy    <          4.2E-10 Ry

     iteration # 14     ecut=    40.00 Ry     beta=0.60
     Davidson diagonalization with overlap
     ethr =  8.50E-13,  avg # of iterations =  4.0

     total cpu time spent up to now is     5088.3 secs

     End of self-consistent calculation

     Number of k-points >= 100: set verbosity='high' to print the bands.

     the Fermi energy is    14.6211 ev

!    total energy              =    -467.86860179 Ry
     Harris-Foulkes estimate   =    -467.86860179 Ry
     estimated scf accuracy    <          1.6E-11 Ry

     The total energy is the sum of the following terms:

     one-electron contribution =    -141.35308572 Ry
     hartree contribution      =      88.48263214 Ry
     xc contribution           =     -61.99550040 Ry
     ewald contribution        =    -352.99939269 Ry
     smearing contrib. (-TS)   =      -0.00325513 Ry

     convergence has been achieved in  14 iterations

     Forces acting on atoms (Ry/au):

     atom    1 type  2   force =    -0.00028348   -0.00016367    0.00000000
     atom    2 type  2   force =     0.00008575    0.00004951    0.00000000
     atom    3 type  2   force =     0.00132308    0.00076388    0.00000000
     atom    4 type  1   force =    -0.00112534   -0.00064972    0.00000000

     Total force =     0.002035     Total SCF correction =     0.000005


     entering subroutine stress ...

          total   stress  (Ry/bohr**3)                   (kbar)     P=    0.16
   0.00000171   0.00000404   0.00000000          0.25      0.59      0.00
[...]
     Davidson diagonalization with overlap
     c_bands:  1 eigenvalues not converged
     c_bands:  1 eigenvalues not converged
     c_bands:  2 eigenvalues not converged
     c_bands:  1 eigenvalues not converged
     c_bands:  2 eigenvalues not converged
     c_bands:  1 eigenvalues not converged
     c_bands:  2 eigenvalues not converged
     c_bands:  1 eigenvalues not converged
     c_bands:  1 eigenvalues not converged
     c_bands:  1 eigenvalues not converged
     c_bands:  2 eigenvalues not converged
     c_bands:  2 eigenvalues not converged
     c_bands:  2 eigenvalues not converged
     c_bands:  1 eigenvalues not converged
     c_bands:  1 eigenvalues not converged
     c_bands:  1 eigenvalues not converged
     c_bands:  2 eigenvalues not converged
     c_bands:  1 eigenvalues not converged
     c_bands:  1 eigenvalues not converged
     c_bands:  1 eigenvalues not converged
     c_bands:  1 eigenvalues not converged
     c_bands:  2 eigenvalues not converged
     c_bands:  2 eigenvalues not converged
     c_bands:  1 eigenvalues not converged
     c_bands:  1 eigenvalues not converged
     c_bands:  1 eigenvalues not converged
     c_bands:  1 eigenvalues not converged
     c_bands:  1 eigenvalues not converged
     c_bands:  1 eigenvalues not converged
     c_bands:  1 eigenvalues not converged
     c_bands:  1 eigenvalues not converged
     c_bands:  1 eigenvalues not converged
     c_bands:  2 eigenvalues not converged
     c_bands:  1 eigenvalues not converged
     c_bands:  2 eigenvalues not converged
     c_bands:  2 eigenvalues not converged
     c_bands:  2 eigenvalues not converged
     c_bands:  1 eigenvalues not converged
     c_bands:  1 eigenvalues not converged
     c_bands:  1 eigenvalues not converged
     c_bands:  1 eigenvalues not converged
     c_bands:  2 eigenvalues not converged
     c_bands:  1 eigenvalues not converged
     c_bands:  1 eigenvalues not converged
     c_bands:  1 eigenvalues not converged
     c_bands:  1 eigenvalues not converged
     c_bands:  1 eigenvalues not converged
     c_bands:  1 eigenvalues not converged
     c_bands:  1 eigenvalues not converged
     c_bands:  1 eigenvalues not converged
     c_bands:  2 eigenvalues not converged
     c_bands:  2 eigenvalues not converged
     c_bands:  1 eigenvalues not converged
     c_bands:  1 eigenvalues not converged
     c_bands:  1 eigenvalues not converged
     c_bands:  1 eigenvalues not converged
     c_bands:  1 eigenvalues not converged
     c_bands:  1 eigenvalues not converged
     c_bands:  1 eigenvalues not converged
     c_bands:  1 eigenvalues not converged
     c_bands:  1 eigenvalues not converged
     c_bands:  1 eigenvalues not converged
     c_bands:  1 eigenvalues not converged
     c_bands:  1 eigenvalues not converged
     c_bands:  1 eigenvalues not converged
     c_bands:  1 eigenvalues not converged
     c_bands:  1 eigenvalues not converged
     c_bands:  1 eigenvalues not converged
     c_bands:  1 eigenvalues not converged
     c_bands:  1 eigenvalues not converged
     c_bands:  1 eigenvalues not converged
     c_bands:  1 eigenvalues not converged
     c_bands:  1 eigenvalues not converged
     c_bands:  1 eigenvalues not converged
     c_bands:  1 eigenvalues not converged
     c_bands:  1 eigenvalues not converged
     c_bands:  1 eigenvalues not converged
     c_bands:  1 eigenvalues not converged
     c_bands:  1 eigenvalues not converged
     c_bands:  1 eigenvalues not converged
     c_bands:  2 eigenvalues not converged
     c_bands:  1 eigenvalues not converged
     c_bands:  1 eigenvalues not converged
     c_bands:  2 eigenvalues not converged
     c_bands:  1 eigenvalues not converged
     c_bands:  1 eigenvalues not converged
     c_bands:  1 eigenvalues not converged
     c_bands:  2 eigenvalues not converged
     c_bands:  1 eigenvalues not converged
     c_bands:  1 eigenvalues not converged
     c_bands:  1 eigenvalues not converged
     c_bands:  1 eigenvalues not converged
     c_bands:  1 eigenvalues not converged
     c_bands:  1 eigenvalues not converged
     c_bands:  1 eigenvalues not converged
     c_bands:  1 eigenvalues not converged
     c_bands:  1 eigenvalues not converged
     c_bands:  1 eigenvalues not converged
     c_bands:  1 eigenvalues not converged
     c_bands:  1 eigenvalues not converged
     c_bands:  1 eigenvalues not converged
     c_bands:  1 eigenvalues not converged
     c_bands:  1 eigenvalues not converged
     c_bands:  1 eigenvalues not converged
     c_bands:  1 eigenvalues not converged
     c_bands:  1 eigenvalues not converged
     c_bands:  1 eigenvalues not converged
     c_bands:  1 eigenvalues not converged
     c_bands:  1 eigenvalues not converged
     c_bands:  1 eigenvalues not converged
     c_bands:  1 eigenvalues not converged
     c_bands:  1 eigenvalues not converged
     c_bands:  1 eigenvalues not converged
     c_bands:  1 eigenvalues not converged
     c_bands:  1 eigenvalues not converged
     c_bands:  1 eigenvalues not converged
     c_bands:  1 eigenvalues not converged
     c_bands:  1 eigenvalues not converged
     c_bands:  1 eigenvalues not converged
     c_bands:  1 eigenvalues not converged
     c_bands:  2 eigenvalues not converged
     c_bands:  1 eigenvalues not converged
     c_bands:  1 eigenvalues not converged
     c_bands:  1 eigenvalues not converged
     c_bands:  1 eigenvalues not converged
     c_bands:  1 eigenvalues not converged
     c_bands:  1 eigenvalues not converged
     c_bands:  1 eigenvalues not converged
     c_bands:  1 eigenvalues not converged
     c_bands:  1 eigenvalues not converged
     c_bands:  1 eigenvalues not converged
     c_bands:  1 eigenvalues not converged
     c_bands:  1 eigenvalues not converged
     c_bands:  1 eigenvalues not converged
     c_bands:  1 eigenvalues not converged
     c_bands:  2 eigenvalues not converged
     c_bands:  2 eigenvalues not converged
     c_bands:  2 eigenvalues not converged
     c_bands:  2 eigenvalues not converged
     c_bands:  1 eigenvalues not converged
     c_bands:  1 eigenvalues not converged
     c_bands:  2 eigenvalues not converged
     c_bands:  1 eigenvalues not converged
     c_bands:  2 eigenvalues not converged
     c_bands:  2 eigenvalues not converged
     c_bands:  1 eigenvalues not converged
     c_bands:  1 eigenvalues not converged
     c_bands:  1 eigenvalues not converged
     c_bands:  1 eigenvalues not converged
     c_bands:  1 eigenvalues not converged
     c_bands:  1 eigenvalues not converged
     c_bands:  1 eigenvalues not converged
     c_bands:  1 eigenvalues not converged
     c_bands:  1 eigenvalues not converged
     c_bands:  2 eigenvalues not converged
     c_bands:  2 eigenvalues not converged
     c_bands:  1 eigenvalues not converged
     c_bands:  1 eigenvalues not converged
     c_bands:  1 eigenvalues not converged
     c_bands:  1 eigenvalues not converged
     c_bands:  2 eigenvalues not converged
     c_bands:  2 eigenvalues not converged
     c_bands:  2 eigenvalues not converged
     c_bands:  1 eigenvalues not converged
     c_bands:  1 eigenvalues not converged
     c_bands:  1 eigenvalues not converged
     c_bands:  1 eigenvalues not converged
     c_bands:  1 eigenvalues not converged
     c_bands:  1 eigenvalues not converged
     c_bands:  1 eigenvalues not converged
     c_bands:  2 eigenvalues not converged
     c_bands:  2 eigenvalues not converged
     c_bands:  1 eigenvalues not converged
     c_bands:  1 eigenvalues not converged
     c_bands:  1 eigenvalues not converged
     c_bands:  1 eigenvalues not converged
     c_bands:  2 eigenvalues not converged
     c_bands:  1 eigenvalues not converged
     ethr =  1.00E-06,  avg # of iterations = 17.3

     total cpu time spent up to now is    20885.2 secs

     total energy              =    -464.52104742 Ry
     Harris-Foulkes estimate   =    -469.30729162 Ry
     estimated scf accuracy    <       6.18566484 Ry

     iteration #  2     ecut=    40.00 Ry     beta=0.60
     Davidson diagonalization with overlap
     ethr =  1.00E-02,  avg # of iterations =  5.0

     total cpu time spent up to now is    20942.6 secs

     total energy              =    -463.68187931 Ry
     Harris-Foulkes estimate   =    -475.42862340 Ry
     estimated scf accuracy    <      41.20378829 Ry

     iteration #  3     ecut=    40.00 Ry     beta=0.60
     Davidson diagonalization with overlap
     ethr =  1.00E-02,  avg # of iterations =  4.5

     total cpu time spent up to now is    20992.0 secs

     total energy              =    -467.56585585 Ry
     Harris-Foulkes estimate   =    -467.95240579 Ry
     estimated scf accuracy    <       1.40763414 Ry

     iteration #  4     ecut=    40.00 Ry     beta=0.60
     Davidson diagonalization with overlap
     ethr =  2.87E-03,  avg # of iterations =  5.0

     total cpu time spent up to now is    21042.7 secs

     total energy              =    -467.47478118 Ry
     Harris-Foulkes estimate   =    -468.17786127 Ry
     estimated scf accuracy    <       5.58678399 Ry

     iteration #  5     ecut=    40.00 Ry     beta=0.60
     Davidson diagonalization with overlap
     ethr =  2.87E-03,  avg # of iterations =  2.9

     total cpu time spent up to now is    21076.9 secs

     total energy              =    -467.83182032 Ry
     Harris-Foulkes estimate   =    -467.86382610 Ry
     estimated scf accuracy    <       0.13969108 Ry

     iteration #  6     ecut=    40.00 Ry     beta=0.60
     Davidson diagonalization with overlap
     ethr =  2.85E-04,  avg # of iterations =  5.5

     total cpu time spent up to now is    21132.6 secs

     total energy              =    -467.83350854 Ry
     Harris-Foulkes estimate   =    -467.89576465 Ry
     estimated scf accuracy    <       0.44349322 Ry

     iteration #  7     ecut=    40.00 Ry     beta=0.60
     Davidson diagonalization with overlap
     ethr =  2.85E-04,  avg # of iterations =  3.9

     total cpu time spent up to now is    21170.0 secs

     total energy              =    -467.86491447 Ry
     Harris-Foulkes estimate   =    -467.86979054 Ry
     estimated scf accuracy    <       0.04305009 Ry

     iteration #  8     ecut=    40.00 Ry     beta=0.60
     Davidson diagonalization with overlap
     ethr =  8.79E-05,  avg # of iterations =  4.7

     total cpu time spent up to now is    21210.0 secs

     total energy              =    -467.86635859 Ry
     Harris-Foulkes estimate   =    -467.86926115 Ry
     estimated scf accuracy    <       0.01213271 Ry

     iteration #  9     ecut=    40.00 Ry     beta=0.60
     Davidson diagonalization with overlap
     c_bands:  3 eigenvalues not converged
     c_bands:  2 eigenvalues not converged
     c_bands:  1 eigenvalues not converged
     ethr =  2.48E-05,  avg # of iterations =  5.7

     total cpu time spent up to now is    21259.8 secs

     total energy              =    -467.86814117 Ry
     Harris-Foulkes estimate   =    -467.86937136 Ry
     estimated scf accuracy    <       0.00900383 Ry

     iteration # 10     ecut=    40.00 Ry     beta=0.60
     Davidson diagonalization with overlap
     ethr =  1.84E-05,  avg # of iterations =  1.1

     total cpu time spent up to now is    21289.7 secs

     total energy              =    -467.86844805 Ry
     Harris-Foulkes estimate   =    -467.86856972 Ry
     estimated scf accuracy    <       0.00110332 Ry

     iteration # 11     ecut=    40.00 Ry     beta=0.60
     Davidson diagonalization with overlap
     ethr =  2.25E-06,  avg # of iterations =  5.9

     total cpu time spent up to now is    21341.3 secs

     total energy              =    -467.86868369 Ry
     Harris-Foulkes estimate   =    -467.86869805 Ry
     estimated scf accuracy    <       0.00015489 Ry

     iteration # 12     ecut=    40.00 Ry     beta=0.60
     Davidson diagonalization with overlap
     ethr =  3.16E-07,  avg # of iterations =  1.5

     total cpu time spent up to now is    21372.2 secs

     total energy              =    -467.86868436 Ry
     Harris-Foulkes estimate   =    -467.86868967 Ry
     estimated scf accuracy    <       0.00005633 Ry

     iteration # 13     ecut=    40.00 Ry     beta=0.60
     Davidson diagonalization with overlap
     ethr =  1.15E-07,  avg # of iterations =  2.5

     total cpu time spent up to now is    21405.3 secs

     total energy              =    -467.86868684 Ry
     Harris-Foulkes estimate   =    -467.86868755 Ry
     estimated scf accuracy    <       0.00000912 Ry

     iteration # 14     ecut=    40.00 Ry     beta=0.60
     Davidson diagonalization with overlap
     ethr =  1.86E-08,  avg # of iterations =  4.0

     total cpu time spent up to now is    21446.4 secs

     total energy              =    -467.86868807 Ry
     Harris-Foulkes estimate   =    -467.86868823 Ry
     estimated scf accuracy    <       0.00000138 Ry

     iteration # 15     ecut=    40.00 Ry     beta=0.60
     Davidson diagonalization with overlap
     ethr =  2.81E-09,  avg # of iterations =  3.3

     total cpu time spent up to now is    21483.1 secs

     total energy              =    -467.86868819 Ry
     Harris-Foulkes estimate   =    -467.86868822 Ry
     estimated scf accuracy    <       0.00000021 Ry

     iteration # 16     ecut=    40.00 Ry     beta=0.60
     Davidson diagonalization with overlap
     ethr =  4.39E-10,  avg # of iterations =  4.2

     total cpu time spent up to now is    21526.6 secs

     total energy              =    -467.86868823 Ry
     Harris-Foulkes estimate   =    -467.86868824 Ry
     estimated scf accuracy    <       0.00000009 Ry

     iteration # 17     ecut=    40.00 Ry     beta=0.60
     Davidson diagonalization with overlap
     ethr =  1.77E-10,  avg # of iterations =  1.3

     total cpu time spent up to now is    21556.8 secs

     total energy              =    -467.86868823 Ry
     Harris-Foulkes estimate   =    -467.86868823 Ry
     estimated scf accuracy    <          4.1E-09 Ry

     iteration # 18     ecut=    40.00 Ry     beta=0.60
     Davidson diagonalization with overlap
     ethr =  8.36E-12,  avg # of iterations =  4.9

     total cpu time spent up to now is    21611.4 secs

     total energy              =    -467.86868824 Ry
     Harris-Foulkes estimate   =    -467.86868824 Ry
     estimated scf accuracy    <       0.00000001 Ry

     iteration # 19     ecut=    40.00 Ry     beta=0.60
     Davidson diagonalization with overlap
     ethr =  8.36E-12,  avg # of iterations =  1.0

     total cpu time spent up to now is    21641.1 secs

     total energy              =    -467.86868824 Ry
     Harris-Foulkes estimate   =    -467.86868824 Ry
     estimated scf accuracy    <          3.0E-09 Ry

     iteration # 20     ecut=    40.00 Ry     beta=0.60
     Davidson diagonalization with overlap
     ethr =  6.05E-12,  avg # of iterations =  3.0

     total cpu time spent up to now is    21677.3 secs

     total energy              =    -467.86868824 Ry
     Harris-Foulkes estimate   =    -467.86868824 Ry
     estimated scf accuracy    <          1.7E-10 Ry

     iteration # 21     ecut=    40.00 Ry     beta=0.60
     Davidson diagonalization with overlap
     ethr =  3.53E-13,  avg # of iterations =  3.4

     total cpu time spent up to now is    21714.8 secs

     total energy              =    -467.86868824 Ry
     Harris-Foulkes estimate   =    -467.86868824 Ry
     estimated scf accuracy    <          3.2E-11 Ry

     iteration # 22     ecut=    40.00 Ry     beta=0.60
     Davidson diagonalization with overlap
     ethr =  1.00E-13,  avg # of iterations =  2.1

     total cpu time spent up to now is    21746.5 secs

     total energy              =    -467.86868824 Ry
     Harris-Foulkes estimate   =    -467.86868824 Ry
     estimated scf accuracy    <          1.2E-11 Ry

     iteration # 23     ecut=    40.00 Ry     beta=0.60
     Davidson diagonalization with overlap
     ethr =  1.00E-13,  avg # of iterations =  1.0

     total cpu time spent up to now is    21776.2 secs

     End of self-consistent calculation

     Number of k-points >= 100: set verbosity='high' to print the bands.

     the Fermi energy is    14.5794 ev

!    total energy              =    -467.86868824 Ry
     Harris-Foulkes estimate   =    -467.86868824 Ry
     estimated scf accuracy    <          1.4E-12 Ry

     The total energy is the sum of the following terms:

     one-electron contribution =    -140.64612123 Ry
     hartree contribution      =      88.29349619 Ry
     xc contribution           =     -62.01611377 Ry
     ewald contribution        =    -353.50022485 Ry
     smearing contrib. (-TS)   =       0.00027542 Ry

     convergence has been achieved in  23 iterations

     Forces acting on atoms (Ry/au):

     atom    1 type  2   force =     0.00015129    0.00008735    0.00000000
     atom    2 type  2   force =     0.00000551    0.00000318    0.00000000
     atom    3 type  2   force =    -0.00016352   -0.00009441    0.00000000
     atom    4 type  1   force =     0.00000672    0.00000388    0.00000000

     Total force =     0.000257     Total SCF correction =     0.000003


     entering subroutine stress ...

          total   stress  (Ry/bohr**3)                   (kbar)     P=   -5.82
  -0.00003230   0.00001023   0.00000000         -4.75      1.50      0.00
   0.00001023  -0.00004411   0.00000000          1.50     -6.49      0.00
   0.00000000   0.00000000  -0.00004238          0.00      0.00     -6.23


     init_run     :     27.92s CPU     32.93s WALL (       2 calls)
     electrons    :  20390.96s CPU  21209.64s WALL (      33 calls)
     update_pot   :     56.97s CPU     57.87s WALL (      31 calls)
     forces       :    169.79s CPU    176.09s WALL (      33 calls)
     stress       :    300.37s CPU    306.37s WALL (      33 calls)

     Called by init_run:
     wfcinit      :     24.81s CPU     29.35s WALL (       2 calls)
     potinit      :      0.87s CPU      0.97s WALL (       2 calls)

     Called by electrons:
     c_bands      :  17762.68s CPU  18426.72s WALL (     583 calls)
     sum_band     :   2491.61s CPU   2625.42s WALL (     583 calls)
     v_of_rho     :     24.29s CPU     25.23s WALL (     610 calls)
     newd         :    113.58s CPU    134.35s WALL (     610 calls)
     mix_rho      :      3.40s CPU      3.50s WALL (     583 calls)

     Called by c_bands:
     init_us_2    :    264.76s CPU    273.63s WALL (  444240 calls)
     cegterg      :  17179.47s CPU  17824.18s WALL (  209880 calls)

     Called by sum_band:
     sum_band:bec :     15.77s CPU     16.47s WALL (  209880 calls)
     addusdens    :    112.12s CPU    138.34s WALL (     583 calls)

     Called by *egterg:
     h_psi        :   9584.15s CPU  10060.85s WALL (  920318 calls)
     s_psi        :   1121.86s CPU   1147.64s WALL (  920318 calls)
     g_psi        :     43.78s CPU     44.56s WALL (  709718 calls)
     cdiaghg      :   2233.91s CPU   2277.75s WALL (  906278 calls)

     Called by h_psi:
     h_psi:pot    :   9484.22s CPU   9957.96s WALL (  920318 calls)
     h_psi:calbec :   1454.52s CPU   1530.18s WALL (  920318 calls)
     vloc_psi     :   6927.42s CPU   7289.37s WALL (  920318 calls)
     add_vuspsi   :   1097.70s CPU   1134.34s WALL (  920318 calls)

     General routines
     calbec       :   2069.98s CPU   2173.49s WALL ( 1189598 calls)
     fft          :     15.55s CPU     16.12s WALL (   10508 calls)
     ffts         :      0.43s CPU      0.46s WALL (    1193 calls)
     fftw         :   7576.28s CPU   7969.08s WALL (39095420 calls)
     interpolate  :      2.36s CPU      2.46s WALL (    1193 calls)

     Parallel routines
     fft_scatter  :   1294.38s CPU   1366.20s WALL (39107121 calls)

     PWSCF        :     5h49m CPU        6h 3m WALL


   This run was terminated on:  17:37:56   1May2018            

=------------------------------------------------------------------------------=
   JOB DONE.
=------------------------------------------------------------------------------=
