
     Program PWSCF v.6.0 (svn rev. 13079) starts on  1May2018 at 12:48:13 

     This program is part of the open-source Quantum ESPRESSO suite
     for quantum simulation of materials; please cite
         "P. Giannozzi et al., J. Phys.:Condens. Matter 21 395502 (2009);
          URL http://www.quantum-espresso.org", 
     in publications or presentations arising from this work. More details at
     http://www.quantum-espresso.org/quote

     Parallel version (MPI), running on     4 processors
     R & G space division:  proc/nbgrp/npool/nimage =       4
     Waiting for input...
     Reading input from standard input

     Current dimensions of program PWSCF are:
     Max number of different atomic species (ntypx) = 10
     Max number of k-points (npk) =  40000
     Max angular momentum in pseudopotentials (lmaxx) =  3

     Subspace diagonalization in iterative solution of the eigenvalue problem:
     a serial algorithm will be used


     Parallelization info
     --------------------
     sticks:   dense  smooth     PW     G-vecs:    dense   smooth      PW
     Min         933     371    131                20808     5230    1110
     Max         934     372    132                20809     5231    1111
     Sum        3735    1485    527                83235    20921    4443



     bravais-lattice index     =            0
     lattice parameter (alat)  =       1.8897  a.u.
     unit-cell volume          =     440.0051 (a.u.)^3
     number of atoms/cell      =            3
     number of atomic types    =            2
     number of electrons       =        38.00
     number of Kohn-Sham states=           23
     kinetic-energy cutoff     =      50.0000  Ry
     charge density cutoff     =     500.0000  Ry
     convergence threshold     =      1.0E-10
     mixing beta               =       0.6000
     number of iterations used =            8  plain     mixing
     Exchange-correlation      = SLA  PW   PBE  PBE ( 1  4  3  4 0 0)
     nstep                     =           50


     celldm(1)=   1.889726  celldm(2)=   0.000000  celldm(3)=   0.000000
     celldm(4)=   0.000000  celldm(5)=   0.000000  celldm(6)=   0.000000

     crystal axes: (cart. coord. in units of alat)
               a(1) = (  -1.758031   5.274095  -1.758031 )  
               a(2) = (   1.758031   5.274095   1.758031 )  
               a(3) = (   1.758031  -5.274095  -1.758031 )  

     reciprocal axes: (cart. coord. in units 2 pi/alat)
               b(1) = (  0.000000  0.094803 -0.284409 )  
               b(2) = (  0.284409  0.094803  0.000000 )  
               b(3) = (  0.284409  0.000000 -0.284409 )  


     PseudoPot. # 1 for Nb read from file:
     ./Nb.pbe-nsp-van.UPF
     MD5 check sum: 0a22fc7fb0ba19a08ca5db297a5d2854
     Pseudo is Ultrasoft + core correction, Zval = 13.0
     Generated by new atomic code, or converted to UPF format
     Using radial grid of  887 points,  6 beta functions with: 
                l(1) =   0
                l(2) =   0
                l(3) =   1
                l(4) =   1
                l(5) =   2
                l(6) =   2
     Q(r) pseudized with  6 coefficients,  rinner =    1.000   1.000   1.000
                                                       1.000   1.000

     PseudoPot. # 2 for Ti read from file:
     ./Ti.pbe-sp-van_ak.UPF
     MD5 check sum: f98fea3e8887528921fefa5636a534ca
     Pseudo is Ultrasoft, Zval = 12.0
     Generated by new atomic code, or converted to UPF format
     Using radial grid of  851 points,  6 beta functions with: 
                l(1) =   0
                l(2) =   0
                l(3) =   1
                l(4) =   1
                l(5) =   2
                l(6) =   2
     Q(r) pseudized with  8 coefficients,  rinner =    1.000   1.000   1.000
                                                       1.000   1.000

     atomic species   valence    mass     pseudopotential
        Nb            13.00    92.90638     Nb( 1.00)
        Ti            12.00    47.86700     Ti( 1.00)

      8 Sym. Ops. (no inversion) found
          (note:  8 additional sym.ops. were found but ignored
           their fractional translations are incommensurate with FFT grid)


   Cartesian axes

     site n.     atom                  positions (alat units)
         1           Ti  tau(   1) = (   1.7580316   1.7580316  -1.7580316  )
         2           Nb  tau(   2) = (   1.7580316   5.2740949  -1.7580316  )
         3           Nb  tau(   3) = (   1.7580316  -1.7580316  -1.7580316  )

     number of k points=   244  Marzari-Vanderbilt smearing, width (Ry)=  0.0200

     Number of k-points >= 100: set verbosity='high' to print them.

     Dense  grid:    83235 G-vectors     FFT dimensions: (  80,  80,  80)

     Smooth grid:    20921 G-vectors     FFT dimensions: (  50,  50,  50)

     Estimated max dynamical RAM per process >      76.39Mb

     Estimated total allocated dynamical RAM >     305.55Mb

     Initial potential from superposition of free atoms

     starting charge   36.99449, renormalised to   38.00000
     Starting wfc are   36 randomized atomic wfcs

     total cpu time spent up to now is       19.4 secs

     per-process dynamical memory:   143.4 Mb

     Self-consistent Calculation

     iteration #  1     ecut=    50.00 Ry     beta=0.60
     Davidson diagonalization with overlap
     ethr =  1.00E-02,  avg # of iterations =  2.6

     total cpu time spent up to now is       56.8 secs

     total energy              =    -337.17083882 Ry
     Harris-Foulkes estimate   =    -354.05496672 Ry
     estimated scf accuracy    <      21.18987162 Ry

     iteration #  2     ecut=    50.00 Ry     beta=0.60
     Davidson diagonalization with overlap
     ethr =  1.00E-02,  avg # of iterations =  6.9

     total cpu time spent up to now is      122.8 secs

     total energy              =    -341.43747684 Ry
     Harris-Foulkes estimate   =    -377.02684387 Ry
     estimated scf accuracy    <     113.63236195 Ry

     iteration #  3     ecut=    50.00 Ry     beta=0.60
     Davidson diagonalization with overlap
     ethr =  1.00E-02,  avg # of iterations =  5.1

     total cpu time spent up to now is      177.0 secs

     total energy              =    -353.46421391 Ry
     Harris-Foulkes estimate   =    -354.10539030 Ry
     estimated scf accuracy    <       6.58776865 Ry

     iteration #  4     ecut=    50.00 Ry     beta=0.60
     Davidson diagonalization with overlap
     ethr =  1.00E-02,  avg # of iterations =  1.0

     total cpu time spent up to now is      207.3 secs

     total energy              =    -352.98084828 Ry
     Harris-Foulkes estimate   =    -353.50255317 Ry
     estimated scf accuracy    <       4.79448557 Ry

     iteration #  5     ecut=    50.00 Ry     beta=0.60
     Davidson diagonalization with overlap
     ethr =  1.00E-02,  avg # of iterations =  1.0

     total cpu time spent up to now is      237.4 secs

     total energy              =    -352.65550968 Ry
     Harris-Foulkes estimate   =    -353.01290435 Ry
     estimated scf accuracy    <       3.50606842 Ry

     iteration #  6     ecut=    50.00 Ry     beta=0.60
     Davidson diagonalization with overlap
     ethr =  9.23E-03,  avg # of iterations =  1.0

     total cpu time spent up to now is      267.7 secs

     total energy              =    -352.40914767 Ry
     Harris-Foulkes estimate   =    -352.68447579 Ry
     estimated scf accuracy    <       2.58167657 Ry

     iteration #  7     ecut=    50.00 Ry     beta=0.60
     Davidson diagonalization with overlap
     ethr =  6.79E-03,  avg # of iterations =  2.1

     total cpu time spent up to now is      299.4 secs

     total energy              =    -352.15960309 Ry
     Harris-Foulkes estimate   =    -352.48564612 Ry
     estimated scf accuracy    <       1.24151430 Ry

     iteration #  8     ecut=    50.00 Ry     beta=0.60
     Davidson diagonalization with overlap
     ethr =  3.27E-03,  avg # of iterations =  4.9

     total cpu time spent up to now is      346.4 secs

     total energy              =    -352.39720813 Ry
     Harris-Foulkes estimate   =    -352.58450657 Ry
     estimated scf accuracy    <       2.89112397 Ry

     iteration #  9     ecut=    50.00 Ry     beta=0.60
     Davidson diagonalization with overlap
     ethr =  3.27E-03,  avg # of iterations =  1.0

     total cpu time spent up to now is      376.6 secs

     total energy              =    -352.34223385 Ry
     Harris-Foulkes estimate   =    -352.44614736 Ry
     estimated scf accuracy    <       0.76622716 Ry

     iteration # 10     ecut=    50.00 Ry     beta=0.60
     Davidson diagonalization with overlap
     ethr =  2.02E-03,  avg # of iterations =  3.9

     total cpu time spent up to now is      412.9 secs

     total energy              =    -352.47069735 Ry
     Harris-Foulkes estimate   =    -352.44808767 Ry
     estimated scf accuracy    <       0.06943258 Ry

     iteration # 11     ecut=    50.00 Ry     beta=0.60
     Davidson diagonalization with overlap
     ethr =  1.83E-04,  avg # of iterations =  6.8

     total cpu time spent up to now is      464.0 secs

     total energy              =    -352.39234687 Ry
     Harris-Foulkes estimate   =    -352.49961672 Ry
     estimated scf accuracy    <       0.55962271 Ry

     iteration # 12     ecut=    50.00 Ry     beta=0.60
     Davidson diagonalization with overlap
     ethr =  1.83E-04,  avg # of iterations =  4.8

     total cpu time spent up to now is      514.2 secs

     total energy              =    -352.44102451 Ry
     Harris-Foulkes estimate   =    -352.44197526 Ry
     estimated scf accuracy    <       0.01003699 Ry

     iteration # 13     ecut=    50.00 Ry     beta=0.60
     Davidson diagonalization with overlap
     ethr =  2.64E-05,  avg # of iterations =  1.6

     total cpu time spent up to now is      545.4 secs

     total energy              =    -352.44047948 Ry
     Harris-Foulkes estimate   =    -352.44129650 Ry
     estimated scf accuracy    <       0.00286039 Ry

     iteration # 14     ecut=    50.00 Ry     beta=0.60
     Davidson diagonalization with overlap
     ethr =  7.53E-06,  avg # of iterations =  5.0

     total cpu time spent up to now is      590.4 secs

     total energy              =    -352.44070449 Ry
     Harris-Foulkes estimate   =    -352.44160474 Ry
     estimated scf accuracy    <       0.00594436 Ry

     iteration # 15     ecut=    50.00 Ry     beta=0.60
     Davidson diagonalization with overlap
     ethr =  7.53E-06,  avg # of iterations =  3.2

     total cpu time spent up to now is      623.8 secs

     total energy              =    -352.44110688 Ry
     Harris-Foulkes estimate   =    -352.44109052 Ry
     estimated scf accuracy    <       0.00005284 Ry

     iteration # 16     ecut=    50.00 Ry     beta=0.60
     Davidson diagonalization with overlap
     ethr =  1.39E-07,  avg # of iterations =  5.3

     total cpu time spent up to now is      673.3 secs

     total energy              =    -352.44118400 Ry
     Harris-Foulkes estimate   =    -352.44119110 Ry
     estimated scf accuracy    <       0.00004099 Ry

     iteration # 17     ecut=    50.00 Ry     beta=0.60
     Davidson diagonalization with overlap
     ethr =  1.08E-07,  avg # of iterations =  1.3

     total cpu time spent up to now is      703.9 secs

     total energy              =    -352.44118501 Ry
     Harris-Foulkes estimate   =    -352.44118629 Ry
     estimated scf accuracy    <       0.00000506 Ry

     iteration # 18     ecut=    50.00 Ry     beta=0.60
     Davidson diagonalization with overlap
     ethr =  1.33E-08,  avg # of iterations =  4.6

     total cpu time spent up to now is      749.1 secs

     total energy              =    -352.44118711 Ry
     Harris-Foulkes estimate   =    -352.44118856 Ry
     estimated scf accuracy    <       0.00001846 Ry

     iteration # 19     ecut=    50.00 Ry     beta=0.60
     Davidson diagonalization with overlap
     ethr =  1.33E-08,  avg # of iterations =  1.0

     total cpu time spent up to now is      779.4 secs

     total energy              =    -352.44118697 Ry
     Harris-Foulkes estimate   =    -352.44118733 Ry
     estimated scf accuracy    <       0.00000959 Ry

     iteration # 20     ecut=    50.00 Ry     beta=0.60
     Davidson diagonalization with overlap
     ethr =  1.33E-08,  avg # of iterations =  1.4

     total cpu time spent up to now is      810.2 secs

     total energy              =    -352.44118630 Ry
     Harris-Foulkes estimate   =    -352.44118709 Ry
     estimated scf accuracy    <       0.00000642 Ry

     iteration # 21     ecut=    50.00 Ry     beta=0.60
     Davidson diagonalization with overlap
     ethr =  1.33E-08,  avg # of iterations =  4.0

     total cpu time spent up to now is      847.4 secs

     total energy              =    -352.44118698 Ry
     Harris-Foulkes estimate   =    -352.44118702 Ry
     estimated scf accuracy    <       0.00000050 Ry

     iteration # 22     ecut=    50.00 Ry     beta=0.60
     Davidson diagonalization with overlap
     ethr =  1.33E-09,  avg # of iterations =  3.8

     total cpu time spent up to now is      884.4 secs

     total energy              =    -352.44118695 Ry
     Harris-Foulkes estimate   =    -352.44118706 Ry
     estimated scf accuracy    <       0.00000065 Ry

     iteration # 23     ecut=    50.00 Ry     beta=0.60
     Davidson diagonalization with overlap
     ethr =  1.33E-09,  avg # of iterations =  2.5

     total cpu time spent up to now is      917.2 secs

     total energy              =    -352.44118700 Ry
     Harris-Foulkes estimate   =    -352.44118700 Ry
     estimated scf accuracy    <       0.00000001 Ry

     iteration # 24     ecut=    50.00 Ry     beta=0.60
     Davidson diagonalization with overlap
     ethr =  3.66E-11,  avg # of iterations =  5.1

     total cpu time spent up to now is      964.0 secs

     total energy              =    -352.44118701 Ry
     Harris-Foulkes estimate   =    -352.44118701 Ry
     estimated scf accuracy    <       0.00000002 Ry

     iteration # 25     ecut=    50.00 Ry     beta=0.60
     Davidson diagonalization with overlap
     ethr =  3.66E-11,  avg # of iterations =  1.0

     total cpu time spent up to now is      994.2 secs

     total energy              =    -352.44118701 Ry
     Harris-Foulkes estimate   =    -352.44118701 Ry
     estimated scf accuracy    <          2.8E-09 Ry

     iteration # 26     ecut=    50.00 Ry     beta=0.60
     Davidson diagonalization with overlap
     ethr =  7.25E-12,  avg # of iterations =  4.1

     total cpu time spent up to now is     1035.9 secs

     total energy              =    -352.44118701 Ry
     Harris-Foulkes estimate   =    -352.44118701 Ry
     estimated scf accuracy    <          1.3E-09 Ry

     iteration # 27     ecut=    50.00 Ry     beta=0.60
     Davidson diagonalization with overlap
     ethr =  3.50E-12,  avg # of iterations =  1.0

     total cpu time spent up to now is     1066.2 secs

     total energy              =    -352.44118701 Ry
     Harris-Foulkes estimate   =    -352.44118701 Ry
     estimated scf accuracy    <          6.2E-10 Ry

     iteration # 28     ecut=    50.00 Ry     beta=0.60
     Davidson diagonalization with overlap
     ethr =  1.64E-12,  avg # of iterations =  2.5

     total cpu time spent up to now is     1099.3 secs

     End of self-consistent calculation

     Number of k-points >= 100: set verbosity='high' to print the bands.

     the Fermi energy is    12.9227 ev

!    total energy              =    -352.44118701 Ry
     Harris-Foulkes estimate   =    -352.44118701 Ry
     estimated scf accuracy    <          4.6E-11 Ry

     The total energy is the sum of the following terms:

     one-electron contribution =     -99.82743242 Ry
     hartree contribution      =      62.05991645 Ry
     xc contribution           =     -50.87132149 Ry
     ewald contribution        =    -263.80147973 Ry
     smearing contrib. (-TS)   =      -0.00086982 Ry

     convergence has been achieved in  28 iterations

     Forces acting on atoms (Ry/au):

     atom    1 type  2   force =     0.00000000    0.00000559    0.00000000
     atom    2 type  1   force =     0.00000000   -0.02699548    0.00000000
     atom    3 type  1   force =     0.00000000    0.02698989    0.00000000

     Total force =     0.038173     Total SCF correction =     0.000014


     entering subroutine stress ...

          total   stress  (Ry/bohr**3)                   (kbar)     P= -208.95
  -0.00139358   0.00000000   0.00000000       -205.00      0.00      0.00
   0.00000000  -0.00147414  -0.00000000          0.00   -216.85     -0.00
  -0.00000000   0.00000000  -0.00139358         -0.00      0.00   -205.00


     BFGS Geometry Optimization

     number of scf cycles    =   1
     number of bfgs steps    =   0

     enthalpy new            =    -352.4411870084 Ry

     new trust radius        =       0.1546104717 bohr
     new conv_thr            =            1.0E-10 Ry

     new unit-cell volume =    394.77457 a.u.^3 (    58.49955 Ang^3 )

CELL_PARAMETERS (alat=  1.88972599)
  -1.696782715   5.079725068  -1.696782715
   1.696782715   5.079725068   1.696782715
   1.696782715  -5.079725068  -1.696782715

ATOMIC_POSITIONS (angstrom)
Ti       1.696782715   1.693244536  -1.696782715
Nb       1.696782715   5.065966144  -1.696782715
Nb       1.696782715  -1.679485612  -1.696782715


     NEW-OLD atomic charge density approx. for the potential
     extrapolated charge   33.76143, renormalised to   38.00000

     total cpu time spent up to now is     1111.6 secs

     per-process dynamical memory:   148.2 Mb

     Self-consistent Calculation

     iteration #  1     ecut=    50.00 Ry     beta=0.60
     Davidson diagonalization with overlap
     c_bands:  1 eigenvalues not converged
     c_bands:  1 eigenvalues not converged
     c_bands:  1 eigenvalues not converged
     c_bands:  1 eigenvalues not converged
     c_bands:  1 eigenvalues not converged
     c_bands:  1 eigenvalues not converged
     c_bands:  1 eigenvalues not converged
     c_bands:  1 eigenvalues not converged
     c_bands:  1 eigenvalues not converged
     c_bands:  1 eigenvalues not converged
     c_bands:  1 eigenvalues not converged
     c_bands:  1 eigenvalues not converged
     c_bands:  1 eigenvalues not converged
     c_bands:  1 eigenvalues not converged
     c_bands:  1 eigenvalues not converged
     c_bands:  1 eigenvalues not converged
     c_bands:  1 eigenvalues not converged
     c_bands:  1 eigenvalues not converged
     c_bands:  1 eigenvalues not converged
     c_bands:  1 eigenvalues not converged
     c_bands:  1 eigenvalues not converged
     c_bands:  1 eigenvalues not converged
     c_bands:  1 eigenvalues not converged
     c_bands:  1 eigenvalues not converged
     c_bands:  1 eigenvalues not converged
     c_bands:  1 eigenvalues not converged
     c_bands:  1 eigenvalues not converged
     c_bands:  1 eigenvalues not converged
     ethr =  1.00E-06,  avg # of iterations = 15.2

     total cpu time spent up to now is     1227.1 secs

     total energy              =    -333.20284737 Ry
     Harris-Foulkes estimate   =    -360.17522324 Ry
     estimated scf accuracy    <      21.75106387 Ry

     iteration #  2     ecut=    50.00 Ry     beta=0.60
     Davidson diagonalization with overlap
     ethr =  1.00E-02,  avg # of iterations =  6.2

     total cpu time spent up to now is     1289.3 secs

     total energy              =    -344.19473256 Ry
     Harris-Foulkes estimate   =    -379.80502544 Ry
     estimated scf accuracy    <     114.81306394 Ry

     iteration #  3     ecut=    50.00 Ry     beta=0.60
     Davidson diagonalization with overlap
     ethr =  1.00E-02,  avg # of iterations =  5.0

     total cpu time spent up to now is     1343.3 secs

     total energy              =    -353.97878695 Ry
     Harris-Foulkes estimate   =    -355.61799853 Ry
     estimated scf accuracy    <       7.70349132 Ry

     iteration #  4     ecut=    50.00 Ry     beta=0.60
     Davidson diagonalization with overlap
     ethr =  1.00E-02,  avg # of iterations =  1.0

     total cpu time spent up to now is     1373.7 secs

     total energy              =    -352.91310199 Ry
     Harris-Foulkes estimate   =    -354.09838501 Ry
     estimated scf accuracy    <       5.33111297 Ry

     iteration #  5     ecut=    50.00 Ry     beta=0.60
     Davidson diagonalization with overlap
     ethr =  1.00E-02,  avg # of iterations =  2.0

     total cpu time spent up to now is     1406.2 secs

     total energy              =    -352.81660933 Ry
     Harris-Foulkes estimate   =    -353.05287532 Ry
     estimated scf accuracy    <       2.68209501 Ry

     iteration #  6     ecut=    50.00 Ry     beta=0.60
     Davidson diagonalization with overlap
     ethr =  7.06E-03,  avg # of iterations =  1.0

     total cpu time spent up to now is     1436.7 secs

     total energy              =    -352.81100089 Ry
     Harris-Foulkes estimate   =    -352.83861190 Ry
     estimated scf accuracy    <       2.07881714 Ry

     iteration #  7     ecut=    50.00 Ry     beta=0.60
     Davidson diagonalization with overlap
     ethr =  5.47E-03,  avg # of iterations =  1.0

     total cpu time spent up to now is     1467.2 secs

     total energy              =    -352.71968743 Ry
     Harris-Foulkes estimate   =    -352.82256121 Ry
     estimated scf accuracy    <       1.95449660 Ry

     iteration #  8     ecut=    50.00 Ry     beta=0.60
     Davidson diagonalization with overlap
     ethr =  5.14E-03,  avg # of iterations =  1.0

     total cpu time spent up to now is     1497.5 secs

     total energy              =    -352.34513005 Ry
     Harris-Foulkes estimate   =    -352.73127048 Ry
     estimated scf accuracy    <       1.60674740 Ry

     iteration #  9     ecut=    50.00 Ry     beta=0.60
     Davidson diagonalization with overlap
     ethr =  4.23E-03,  avg # of iterations =  3.5

     total cpu time spent up to now is     1534.1 secs

     total energy              =    -352.50599763 Ry
     Harris-Foulkes estimate   =    -352.49693846 Ry
     estimated scf accuracy    <       0.05565939 Ry

     iteration # 10     ecut=    50.00 Ry     beta=0.60
     Davidson diagonalization with overlap
     ethr =  1.46E-04,  avg # of iterations =  5.9

     total cpu time spent up to now is     1582.5 secs

     total energy              =    -352.46451646 Ry
     Harris-Foulkes estimate   =    -352.52283917 Ry
     estimated scf accuracy    <       0.09602304 Ry

     iteration # 11     ecut=    50.00 Ry     beta=0.60
     Davidson diagonalization with overlap
     ethr =  1.46E-04,  avg # of iterations =  5.1

     total cpu time spent up to now is     1641.9 secs

     total energy              =    -352.71188102 Ry
     Harris-Foulkes estimate   =    -353.87867004 Ry
     estimated scf accuracy    <      24.15230413 Ry

     iteration # 12     ecut=    50.00 Ry     beta=0.60
     Davidson diagonalization with overlap
     ethr =  1.46E-04,  avg # of iterations =  5.2

     total cpu time spent up to now is     1694.4 secs

     total energy              =    -352.56750156 Ry
     Harris-Foulkes estimate   =    -352.93035194 Ry
     estimated scf accuracy    <       9.08008259 Ry

     iteration # 13     ecut=    50.00 Ry     beta=0.60
     Davidson diagonalization with overlap
     ethr =  1.46E-04,  avg # of iterations =  4.8

     total cpu time spent up to now is     1739.9 secs

     total energy              =    -352.34882729 Ry
     Harris-Foulkes estimate   =    -352.64880327 Ry
     estimated scf accuracy    <       2.76509259 Ry

     iteration # 14     ecut=    50.00 Ry     beta=0.60
     Davidson diagonalization with overlap
     ethr =  1.46E-04,  avg # of iterations =  6.2

     total cpu time spent up to now is     1798.9 secs

     total energy              =    -352.61516568 Ry
     Harris-Foulkes estimate   =    -352.53873622 Ry
     estimated scf accuracy    <       0.13347601 Ry

     iteration # 15     ecut=    50.00 Ry     beta=0.60
     Davidson diagonalization with overlap
     ethr =  1.46E-04,  avg # of iterations =  6.3

     total cpu time spent up to now is     1856.2 secs

     total energy              =    -352.72947743 Ry
     Harris-Foulkes estimate   =    -352.69112601 Ry
     estimated scf accuracy    <       0.80275553 Ry

     iteration # 16     ecut=    50.00 Ry     beta=0.60
     Davidson diagonalization with overlap
     ethr =  1.46E-04,  avg # of iterations =  1.0

     total cpu time spent up to now is     1886.8 secs

     total energy              =    -352.75634473 Ry
     Harris-Foulkes estimate   =    -352.73190826 Ry
     estimated scf accuracy    <       0.85501078 Ry

     iteration # 17     ecut=    50.00 Ry     beta=0.60
     Davidson diagonalization with overlap
     ethr =  1.46E-04,  avg # of iterations =  5.0

     total cpu time spent up to now is     1935.5 secs

     total energy              =    -352.62898858 Ry
     Harris-Foulkes estimate   =    -352.79792456 Ry
     estimated scf accuracy    <       0.88528094 Ry

     iteration # 18     ecut=    50.00 Ry     beta=0.60
     Davidson diagonalization with overlap
     ethr =  1.46E-04,  avg # of iterations =  3.0

     total cpu time spent up to now is     1976.8 secs

     total energy              =    -352.52072245 Ry
     Harris-Foulkes estimate   =    -352.64751906 Ry
     estimated scf accuracy    <       0.46772319 Ry

     iteration # 19     ecut=    50.00 Ry     beta=0.60
     Davidson diagonalization with overlap
     ethr =  1.46E-04,  avg # of iterations =  4.8

     total cpu time spent up to now is     2029.7 secs

     total energy              =    -352.56247941 Ry
     Harris-Foulkes estimate   =    -352.56889491 Ry
     estimated scf accuracy    <       0.53930429 Ry

     iteration # 20     ecut=    50.00 Ry     beta=0.60
     Davidson diagonalization with overlap
     ethr =  1.46E-04,  avg # of iterations =  1.0

     total cpu time spent up to now is     2060.3 secs

     total energy              =    -352.53926672 Ry
     Harris-Foulkes estimate   =    -352.56415804 Ry
     estimated scf accuracy    <       0.48374483 Ry

     iteration # 21     ecut=    50.00 Ry     beta=0.60
     Davidson diagonalization with overlap
     ethr =  1.46E-04,  avg # of iterations =  1.0

     total cpu time spent up to now is     2090.9 secs

     total energy              =    -352.51915373 Ry
     Harris-Foulkes estimate   =    -352.54047190 Ry
     estimated scf accuracy    <       0.41385206 Ry

     iteration # 22     ecut=    50.00 Ry     beta=0.60
     Davidson diagonalization with overlap
     ethr =  1.46E-04,  avg # of iterations =  2.7

     total cpu time spent up to now is     2124.0 secs

     total energy              =    -352.44806642 Ry
     Harris-Foulkes estimate   =    -352.52172044 Ry
     estimated scf accuracy    <       0.30387091 Ry

     iteration # 23     ecut=    50.00 Ry     beta=0.60
     Davidson diagonalization with overlap
     ethr =  1.46E-04,  avg # of iterations =  5.3

     total cpu time spent up to now is     2177.5 secs

     total energy              =    -352.48620070 Ry
     Harris-Foulkes estimate   =    -352.50183238 Ry
     estimated scf accuracy    <       0.08747251 Ry

     iteration # 24     ecut=    50.00 Ry     beta=0.60
     Davidson diagonalization with overlap
     ethr =  1.46E-04,  avg # of iterations =  3.3

     total cpu time spent up to now is     2211.7 secs

     total energy              =    -352.49325064 Ry
     Harris-Foulkes estimate   =    -352.49330684 Ry
     estimated scf accuracy    <       0.00019628 Ry

     iteration # 25     ecut=    50.00 Ry     beta=0.60
     Davidson diagonalization with overlap
     ethr =  5.17E-07,  avg # of iterations =  6.7

     total cpu time spent up to now is     2272.9 secs

     total energy              =    -352.49436543 Ry
     Harris-Foulkes estimate   =    -352.49463652 Ry
     estimated scf accuracy    <       0.00186881 Ry

     iteration # 26     ecut=    50.00 Ry     beta=0.60
     Davidson diagonalization with overlap
     ethr =  5.17E-07,  avg # of iterations =  4.3

     total cpu time spent up to now is     2315.4 secs

     total energy              =    -352.49447619 Ry
     Harris-Foulkes estimate   =    -352.49447910 Ry
     estimated scf accuracy    <       0.00002752 Ry

     iteration # 27     ecut=    50.00 Ry     beta=0.60
     Davidson diagonalization with overlap
     ethr =  7.24E-08,  avg # of iterations =  1.6

     total cpu time spent up to now is     2346.7 secs

     total energy              =    -352.49447669 Ry
     Harris-Foulkes estimate   =    -352.49447724 Ry
     estimated scf accuracy    <       0.00001067 Ry

     iteration # 28     ecut=    50.00 Ry     beta=0.60
     Davidson diagonalization with overlap
     ethr =  2.81E-08,  avg # of iterations =  1.7

     total cpu time spent up to now is     2378.2 secs

     total energy              =    -352.49447647 Ry
     Harris-Foulkes estimate   =    -352.49447715 Ry
     estimated scf accuracy    <       0.00001082 Ry

     iteration # 29     ecut=    50.00 Ry     beta=0.60
     Davidson diagonalization with overlap
     ethr =  2.81E-08,  avg # of iterations =  1.0

     total cpu time spent up to now is     2408.7 secs

     total energy              =    -352.49447550 Ry
     Harris-Foulkes estimate   =    -352.49447663 Ry
     estimated scf accuracy    <       0.00000637 Ry

     iteration # 30     ecut=    50.00 Ry     beta=0.60
     Davidson diagonalization with overlap
     ethr =  1.68E-08,  avg # of iterations =  3.2

     total cpu time spent up to now is     2445.2 secs

     total energy              =    -352.49447642 Ry
     Harris-Foulkes estimate   =    -352.49447641 Ry
     estimated scf accuracy    <       0.00000050 Ry

     iteration # 31     ecut=    50.00 Ry     beta=0.60
     Davidson diagonalization with overlap
     ethr =  1.31E-09,  avg # of iterations =  2.5

     total cpu time spent up to now is     2478.4 secs

     total energy              =    -352.49447634 Ry
     Harris-Foulkes estimate   =    -352.49447645 Ry
     estimated scf accuracy    <       0.00000076 Ry

     iteration # 32     ecut=    50.00 Ry     beta=0.60
     Davidson diagonalization with overlap
     ethr =  1.31E-09,  avg # of iterations =  1.2

     total cpu time spent up to now is     2509.2 secs

     total energy              =    -352.49447636 Ry
     Harris-Foulkes estimate   =    -352.49447637 Ry
     estimated scf accuracy    <       0.00000014 Ry

     iteration # 33     ecut=    50.00 Ry     beta=0.60
     Davidson diagonalization with overlap
     ethr =  3.65E-10,  avg # of iterations =  3.9

     total cpu time spent up to now is     2547.0 secs

     total energy              =    -352.49447638 Ry
     Harris-Foulkes estimate   =    -352.49447638 Ry
     estimated scf accuracy    <          2.5E-09 Ry

     iteration # 34     ecut=    50.00 Ry     beta=0.60
     Davidson diagonalization with overlap
     ethr =  6.69E-12,  avg # of iterations =  4.4

     total cpu time spent up to now is     2588.8 secs

     total energy              =    -352.49447638 Ry
     Harris-Foulkes estimate   =    -352.49447638 Ry
     estimated scf accuracy    <          3.9E-10 Ry

     iteration # 35     ecut=    50.00 Ry     beta=0.60
     Davidson diagonalization with overlap
     ethr =  1.04E-12,  avg # of iterations =  3.4

     total cpu time spent up to now is     2625.2 secs

     total energy              =    -352.49447638 Ry
     Harris-Foulkes estimate   =    -352.49447638 Ry
     estimated scf accuracy    <          1.5E-09 Ry

     iteration # 36     ecut=    50.00 Ry     beta=0.60
     Davidson diagonalization with overlap
     ethr =  1.04E-12,  avg # of iterations =  3.4

     total cpu time spent up to now is     2659.8 secs

     total energy              =    -352.49447638 Ry
     Harris-Foulkes estimate   =    -352.49447638 Ry
     estimated scf accuracy    <          1.8E-10 Ry

     iteration # 37     ecut=    50.00 Ry     beta=0.60
     Davidson diagonalization with overlap
     ethr =  4.78E-13,  avg # of iterations =  2.6

     total cpu time spent up to now is     2693.1 secs

     End of self-consistent calculation

     Number of k-points >= 100: set verbosity='high' to print the bands.

     the Fermi energy is    14.7363 ev

!    total energy              =    -352.49447638 Ry
     Harris-Foulkes estimate   =    -352.49447638 Ry
     estimated scf accuracy    <          4.7E-11 Ry

     The total energy is the sum of the following terms:

     one-electron contribution =     -85.75554976 Ry
     hartree contribution      =      57.87470752 Ry
     xc contribution           =     -51.15050217 Ry
     ewald contribution        =    -273.46195034 Ry
     smearing contrib. (-TS)   =      -0.00118163 Ry

     convergence has been achieved in  37 iterations

     Forces acting on atoms (Ry/au):

     atom    1 type  2   force =     0.00000000   -0.00000037    0.00000000
     atom    2 type  1   force =     0.00000000   -0.01993973    0.00000000
     atom    3 type  1   force =     0.00000000    0.01994011   -0.00000000

     Total force =     0.028199     Total SCF correction =     0.000012


     entering subroutine stress ...

          total   stress  (Ry/bohr**3)                   (kbar)     P= -120.16
  -0.00078924  -0.00000000   0.00000000       -116.10     -0.00      0.00
   0.00000000  -0.00087203   0.00000000          0.00   -128.28      0.00
   0.00000000   0.00000000  -0.00078924          0.00      0.00   -116.10


     number of scf cycles    =   2
     number of bfgs steps    =   1

     enthalpy old            =    -352.4411870084 Ry
     enthalpy new            =    -352.4944763771 Ry

     CASE: enthalpy_new < enthalpy_old

     new trust radius        =       0.1823391640 bohr
     new conv_thr            =            1.0E-10 Ry

     new unit-cell volume =    346.14569 a.u.^3 (    51.29350 Ang^3 )

CELL_PARAMETERS (alat=  1.88972599)
  -1.626600345   4.846639389  -1.626600345
   1.626600345   4.846639389   1.626600345
   1.626600345  -4.846639389  -1.626600345

ATOMIC_POSITIONS (angstrom)
Ti       1.626600345   1.615548809  -1.626600345
Nb       1.626600345   4.813202280  -1.626600345
Nb       1.626600345  -1.582111700  -1.626600345


     NEW-OLD atomic charge density approx. for the potential
     extrapolated charge   32.80276, renormalised to   38.00000

     total cpu time spent up to now is     2705.7 secs

     per-process dynamical memory:   148.2 Mb

     Self-consistent Calculation

     iteration #  1     ecut=    50.00 Ry     beta=0.60
     Davidson diagonalization with overlap
     c_bands:  1 eigenvalues not converged
     c_bands:  1 eigenvalues not converged
     c_bands:  1 eigenvalues not converged
     c_bands:  1 eigenvalues not converged
     c_bands:  1 eigenvalues not converged
     c_bands:  1 eigenvalues not converged
     c_bands:  1 eigenvalues not converged
     c_bands:  1 eigenvalues not converged
     c_bands:  1 eigenvalues not converged
     c_bands:  1 eigenvalues not converged
     c_bands:  1 eigenvalues not converged
     c_bands:  1 eigenvalues not converged
     c_bands:  1 eigenvalues not converged
     c_bands:  1 eigenvalues not converged
     c_bands:  1 eigenvalues not converged
     c_bands:  1 eigenvalues not converged
     c_bands:  1 eigenvalues not converged
     c_bands:  1 eigenvalues not converged
     c_bands:  1 eigenvalues not converged
     c_bands:  1 eigenvalues not converged
     c_bands:  1 eigenvalues not converged
     c_bands:  1 eigenvalues not converged
     c_bands:  1 eigenvalues not converged
     ethr =  1.00E-06,  avg # of iterations = 13.9

     total cpu time spent up to now is     2817.9 secs

     total energy              =    -331.61911843 Ry
     Harris-Foulkes estimate   =    -360.47626262 Ry
     estimated scf accuracy    <      23.28395824 Ry

     iteration #  2     ecut=    50.00 Ry     beta=0.60
     Davidson diagonalization with overlap
     ethr =  1.00E-02,  avg # of iterations =  6.1

     total cpu time spent up to now is     2880.9 secs

     total energy              =    -343.99832618 Ry
     Harris-Foulkes estimate   =    -380.64423783 Ry
     estimated scf accuracy    <     116.24247432 Ry

     iteration #  3     ecut=    50.00 Ry     beta=0.60
     Davidson diagonalization with overlap
     ethr =  1.00E-02,  avg # of iterations =  5.0

     total cpu time spent up to now is     2933.9 secs

     total energy              =    -353.98922185 Ry
     Harris-Foulkes estimate   =    -355.75853459 Ry
     estimated scf accuracy    <       8.08802277 Ry

     iteration #  4     ecut=    50.00 Ry     beta=0.60
     Davidson diagonalization with overlap
     ethr =  1.00E-02,  avg # of iterations =  1.1

     total cpu time spent up to now is     2964.6 secs

     total energy              =    -352.82802322 Ry
     Harris-Foulkes estimate   =    -354.12772438 Ry
     estimated scf accuracy    <       5.43787291 Ry

     iteration #  5     ecut=    50.00 Ry     beta=0.60
     Davidson diagonalization with overlap
     ethr =  1.00E-02,  avg # of iterations =  2.0

     total cpu time spent up to now is     2997.6 secs

     total energy              =    -352.75541261 Ry
     Harris-Foulkes estimate   =    -353.00397256 Ry
     estimated scf accuracy    <       2.41117775 Ry

     iteration #  6     ecut=    50.00 Ry     beta=0.60
     Davidson diagonalization with overlap
     ethr =  6.35E-03,  avg # of iterations =  1.0

     total cpu time spent up to now is     3028.0 secs

     total energy              =    -352.80828106 Ry
     Harris-Foulkes estimate   =    -352.78187953 Ry
     estimated scf accuracy    <       1.74561162 Ry

     iteration #  7     ecut=    50.00 Ry     beta=0.60
     Davidson diagonalization with overlap
     ethr =  4.59E-03,  avg # of iterations =  1.0

     total cpu time spent up to now is     3058.5 secs

     total energy              =    -352.46349474 Ry
     Harris-Foulkes estimate   =    -352.81809596 Ry
     estimated scf accuracy    <       1.75656131 Ry

     iteration #  8     ecut=    50.00 Ry     beta=0.60
     Davidson diagonalization with overlap
     ethr =  4.59E-03,  avg # of iterations =  1.4

     total cpu time spent up to now is     3089.6 secs

     total energy              =    -352.35282268 Ry
     Harris-Foulkes estimate   =    -352.50766055 Ry
     estimated scf accuracy    <       0.81955157 Ry

     iteration #  9     ecut=    50.00 Ry     beta=0.60
     Davidson diagonalization with overlap
     ethr =  2.16E-03,  avg # of iterations =  4.0

     total cpu time spent up to now is     3132.3 secs

     total energy              =    -352.51220761 Ry
     Harris-Foulkes estimate   =    -352.52508143 Ry
     estimated scf accuracy    <       0.13790337 Ry

     iteration # 10     ecut=    50.00 Ry     beta=0.60
     Davidson diagonalization with overlap
     ethr =  3.63E-04,  avg # of iterations =  2.0

     total cpu time spent up to now is     3164.4 secs

     total energy              =    -352.61987647 Ry
     Harris-Foulkes estimate   =    -352.51958934 Ry
     estimated scf accuracy    <       0.04483748 Ry

     iteration # 11     ecut=    50.00 Ry     beta=0.60
     Davidson diagonalization with overlap
     ethr =  1.18E-04,  avg # of iterations =  5.1

     total cpu time spent up to now is     3224.3 secs

     total energy              =    -352.45186895 Ry
     Harris-Foulkes estimate   =    -353.65960935 Ry
     estimated scf accuracy    <      19.18302304 Ry

     iteration # 12     ecut=    50.00 Ry     beta=0.60
     Davidson diagonalization with overlap
     ethr =  1.18E-04,  avg # of iterations =  5.5

     total cpu time spent up to now is     3280.4 secs

     total energy              =    -352.46060894 Ry
     Harris-Foulkes estimate   =    -352.75466491 Ry
     estimated scf accuracy    <       4.27439399 Ry

     iteration # 13     ecut=    50.00 Ry     beta=0.60
     Davidson diagonalization with overlap
     ethr =  1.18E-04,  avg # of iterations =  5.3

     total cpu time spent up to now is     3332.8 secs

     total energy              =    -352.45099957 Ry
     Harris-Foulkes estimate   =    -352.55749059 Ry
     estimated scf accuracy    <       0.63503971 Ry

     iteration # 14     ecut=    50.00 Ry     beta=0.60
     Davidson diagonalization with overlap
     ethr =  1.18E-04,  avg # of iterations =  5.6

     total cpu time spent up to now is     3386.3 secs

     total energy              =    -352.55192933 Ry
     Harris-Foulkes estimate   =    -352.53790237 Ry
     estimated scf accuracy    <       0.10540616 Ry

     iteration # 15     ecut=    50.00 Ry     beta=0.60
     Davidson diagonalization with overlap
     ethr =  1.18E-04,  avg # of iterations =  1.1

     total cpu time spent up to now is     3416.8 secs

     total energy              =    -352.53915245 Ry
     Harris-Foulkes estimate   =    -352.55388821 Ry
     estimated scf accuracy    <       0.17460437 Ry

     iteration # 16     ecut=    50.00 Ry     beta=0.60
     Davidson diagonalization with overlap
     ethr =  1.18E-04,  avg # of iterations =  1.0

     total cpu time spent up to now is     3447.4 secs

     total energy              =    -352.54184232 Ry
     Harris-Foulkes estimate   =    -352.53996159 Ry
     estimated scf accuracy    <       0.13156923 Ry

     iteration # 17     ecut=    50.00 Ry     beta=0.60
     Davidson diagonalization with overlap
     ethr =  1.18E-04,  avg # of iterations =  1.0

     total cpu time spent up to now is     3478.1 secs

     total energy              =    -352.51750700 Ry
     Harris-Foulkes estimate   =    -352.54237000 Ry
     estimated scf accuracy    <       0.15895802 Ry

     iteration # 18     ecut=    50.00 Ry     beta=0.60
     Davidson diagonalization with overlap
     ethr =  1.18E-04,  avg # of iterations =  2.1

     total cpu time spent up to now is     3510.8 secs

     total energy              =    -352.51360985 Ry
     Harris-Foulkes estimate   =    -352.52037441 Ry
     estimated scf accuracy    <       0.08594618 Ry

     iteration # 19     ecut=    50.00 Ry     beta=0.60
     Davidson diagonalization with overlap
     ethr =  1.18E-04,  avg # of iterations =  1.0

     total cpu time spent up to now is     3541.4 secs

     total energy              =    -352.50958577 Ry
     Harris-Foulkes estimate   =    -352.51453559 Ry
     estimated scf accuracy    <       0.05409584 Ry

     iteration # 20     ecut=    50.00 Ry     beta=0.60
     Davidson diagonalization with overlap
     ethr =  1.18E-04,  avg # of iterations =  2.0

     total cpu time spent up to now is     3573.5 secs

     total energy              =    -352.49930264 Ry
     Harris-Foulkes estimate   =    -352.51102255 Ry
     estimated scf accuracy    <       0.01862483 Ry

     iteration # 21     ecut=    50.00 Ry     beta=0.60
     Davidson diagonalization with overlap
     ethr =  4.90E-05,  avg # of iterations =  5.4

     total cpu time spent up to now is     3628.0 secs

     total energy              =    -352.48993259 Ry
     Harris-Foulkes estimate   =    -352.52499706 Ry
     estimated scf accuracy    <       0.20068826 Ry

     iteration # 22     ecut=    50.00 Ry     beta=0.60
     Davidson diagonalization with overlap
     ethr =  4.90E-05,  avg # of iterations =  5.0

     total cpu time spent up to now is     3678.3 secs

     total energy              =    -352.50868506 Ry
     Harris-Foulkes estimate   =    -352.50919748 Ry
     estimated scf accuracy    <       0.00253055 Ry

     iteration # 23     ecut=    50.00 Ry     beta=0.60
     Davidson diagonalization with overlap
     ethr =  6.66E-06,  avg # of iterations =  3.1

     total cpu time spent up to now is     3712.0 secs

     total energy              =    -352.50892931 Ry
     Harris-Foulkes estimate   =    -352.50893149 Ry
     estimated scf accuracy    <       0.00001485 Ry

     iteration # 24     ecut=    50.00 Ry     beta=0.60
     Davidson diagonalization with overlap
     ethr =  3.91E-08,  avg # of iterations =  5.2

     total cpu time spent up to now is     3762.9 secs

     total energy              =    -352.50897840 Ry
     Harris-Foulkes estimate   =    -352.50898015 Ry
     estimated scf accuracy    <       0.00000865 Ry

     iteration # 25     ecut=    50.00 Ry     beta=0.60
     Davidson diagonalization with overlap
     ethr =  2.28E-08,  avg # of iterations =  1.4

     total cpu time spent up to now is     3794.0 secs

     total energy              =    -352.50897831 Ry
     Harris-Foulkes estimate   =    -352.50897884 Ry
     estimated scf accuracy    <       0.00000269 Ry

     iteration # 26     ecut=    50.00 Ry     beta=0.60
     Davidson diagonalization with overlap
     ethr =  7.08E-09,  avg # of iterations =  3.9

     total cpu time spent up to now is     3834.4 secs

     total energy              =    -352.50897927 Ry
     Harris-Foulkes estimate   =    -352.50897974 Ry
     estimated scf accuracy    <       0.00001671 Ry

     iteration # 27     ecut=    50.00 Ry     beta=0.60
     Davidson diagonalization with overlap
     ethr =  7.08E-09,  avg # of iterations =  1.0

     total cpu time spent up to now is     3864.9 secs

     total energy              =    -352.50897806 Ry
     Harris-Foulkes estimate   =    -352.50897934 Ry
     estimated scf accuracy    <       0.00001392 Ry

     iteration # 28     ecut=    50.00 Ry     beta=0.60
     Davidson diagonalization with overlap
     ethr =  7.08E-09,  avg # of iterations =  3.0

     total cpu time spent up to now is     3899.1 secs

     total energy              =    -352.50897790 Ry
     Harris-Foulkes estimate   =    -352.50897840 Ry
     estimated scf accuracy    <       0.00000332 Ry

     iteration # 29     ecut=    50.00 Ry     beta=0.60
     Davidson diagonalization with overlap
     ethr =  7.08E-09,  avg # of iterations =  2.6

     total cpu time spent up to now is     3932.0 secs

     total energy              =    -352.50897804 Ry
     Harris-Foulkes estimate   =    -352.50897809 Ry
     estimated scf accuracy    <       0.00000032 Ry

     iteration # 30     ecut=    50.00 Ry     beta=0.60
     Davidson diagonalization with overlap
     ethr =  8.50E-10,  avg # of iterations =  4.1

     total cpu time spent up to now is     3972.2 secs

     total energy              =    -352.50897815 Ry
     Harris-Foulkes estimate   =    -352.50897816 Ry
     estimated scf accuracy    <       0.00000009 Ry

     iteration # 31     ecut=    50.00 Ry     beta=0.60
     Davidson diagonalization with overlap
     ethr =  2.42E-10,  avg # of iterations =  1.3

     total cpu time spent up to now is     4003.3 secs

     total energy              =    -352.50897814 Ry
     Harris-Foulkes estimate   =    -352.50897815 Ry
     estimated scf accuracy    <       0.00000005 Ry

     iteration # 32     ecut=    50.00 Ry     beta=0.60
     Davidson diagonalization with overlap
     ethr =  1.30E-10,  avg # of iterations =  2.8

     total cpu time spent up to now is     4037.4 secs

     End of self-consistent calculation

     Number of k-points >= 100: set verbosity='high' to print the bands.

     the Fermi energy is    17.1934 ev

!    total energy              =    -352.50897815 Ry
     Harris-Foulkes estimate   =    -352.50897815 Ry
     estimated scf accuracy    <          9.5E-11 Ry

     The total energy is the sum of the following terms:

     one-electron contribution =     -68.38707657 Ry
     hartree contribution      =      53.00642958 Ry
     xc contribution           =     -51.54423350 Ry
     ewald contribution        =    -285.58279016 Ry
     smearing contrib. (-TS)   =      -0.00130751 Ry

     convergence has been achieved in  32 iterations

     Forces acting on atoms (Ry/au):

     atom    1 type  2   force =    -0.00000000    0.00000048   -0.00000000
     atom    2 type  1   force =     0.00000000   -0.00147552   -0.00000000
     atom    3 type  1   force =    -0.00000000    0.00147504    0.00000000

     Total force =     0.002086     Total SCF correction =     0.000004


     entering subroutine stress ...

          total   stress  (Ry/bohr**3)                   (kbar)     P=   56.89
   0.00041264  -0.00000000   0.00000000         60.70     -0.00      0.00
   0.00000000   0.00033498   0.00000000          0.00     49.28      0.00
   0.00000000   0.00000000   0.00041264          0.00      0.00     60.70


     number of scf cycles    =   3
     number of bfgs steps    =   2

     enthalpy old            =    -352.4944763771 Ry
     enthalpy new            =    -352.5089781497 Ry

     CASE: enthalpy_new < enthalpy_old

     new trust radius        =       0.0498335041 bohr
     new conv_thr            =            1.0E-10 Ry

     new unit-cell volume =    360.09099 a.u.^3 (    53.35998 Ang^3 )

CELL_PARAMETERS (alat=  1.88972599)
  -1.648384606   4.909515746  -1.648384606
   1.648384606   4.909515746   1.648384606
   1.648384606  -4.909515746  -1.648384606

ATOMIC_POSITIONS (angstrom)
Ti       1.648384606   1.636507844  -1.648384606
Nb       1.648384606   4.878366040  -1.648384606
Nb       1.648384606  -1.605358138  -1.648384606


     NEW-OLD atomic charge density approx. for the potential
     extrapolated charge   39.43269, renormalised to   38.00000

     total cpu time spent up to now is     4050.1 secs

     per-process dynamical memory:   148.2 Mb

     Self-consistent Calculation

     iteration #  1     ecut=    50.00 Ry     beta=0.60
     Davidson diagonalization with overlap
     c_bands:  1 eigenvalues not converged
     c_bands:  1 eigenvalues not converged
     ethr =  1.00E-06,  avg # of iterations = 11.9

     total cpu time spent up to now is     4141.1 secs

     total energy              =    -352.30926178 Ry
     Harris-Foulkes estimate   =    -350.56091056 Ry
     estimated scf accuracy    <       0.15405332 Ry

     iteration #  2     ecut=    50.00 Ry     beta=0.60
     Davidson diagonalization with overlap
     ethr =  4.05E-04,  avg # of iterations =  6.9

     total cpu time spent up to now is     4206.6 secs

     total energy              =    -352.19482767 Ry
     Harris-Foulkes estimate   =    -352.79796100 Ry
     estimated scf accuracy    <       4.64104694 Ry

     iteration #  3     ecut=    50.00 Ry     beta=0.60
     Davidson diagonalization with overlap
     ethr =  4.05E-04,  avg # of iterations =  5.3

     total cpu time spent up to now is     4258.0 secs

     total energy              =    -352.49047198 Ry
     Harris-Foulkes estimate   =    -352.57343950 Ry
     estimated scf accuracy    <       0.32091964 Ry

     iteration #  4     ecut=    50.00 Ry     beta=0.60
     Davidson diagonalization with overlap
     ethr =  4.05E-04,  avg # of iterations =  3.3

     total cpu time spent up to now is     4294.8 secs

     total energy              =    -352.51632631 Ry
     Harris-Foulkes estimate   =    -352.52070356 Ry
     estimated scf accuracy    <       0.03082050 Ry

     iteration #  5     ecut=    50.00 Ry     beta=0.60
     Davidson diagonalization with overlap
     ethr =  8.11E-05,  avg # of iterations =  2.9

     total cpu time spent up to now is     4328.3 secs

     total energy              =    -352.51244526 Ry
     Harris-Foulkes estimate   =    -352.51769745 Ry
     estimated scf accuracy    <       0.02516200 Ry

     iteration #  6     ecut=    50.00 Ry     beta=0.60
     Davidson diagonalization with overlap
     ethr =  6.62E-05,  avg # of iterations =  1.3

     total cpu time spent up to now is     4359.4 secs

     total energy              =    -352.51152692 Ry
     Harris-Foulkes estimate   =    -352.51340946 Ry
     estimated scf accuracy    <       0.01430557 Ry

     iteration #  7     ecut=    50.00 Ry     beta=0.60
     Davidson diagonalization with overlap
     ethr =  3.76E-05,  avg # of iterations =  1.9

     total cpu time spent up to now is     4391.3 secs

     total energy              =    -352.51113751 Ry
     Harris-Foulkes estimate   =    -352.51204463 Ry
     estimated scf accuracy    <       0.00695236 Ry

     iteration #  8     ecut=    50.00 Ry     beta=0.60
     Davidson diagonalization with overlap
     ethr =  1.83E-05,  avg # of iterations =  1.7

     total cpu time spent up to now is     4422.7 secs

     total energy              =    -352.51116991 Ry
     Harris-Foulkes estimate   =    -352.51137660 Ry
     estimated scf accuracy    <       0.00254546 Ry

     iteration #  9     ecut=    50.00 Ry     beta=0.60
     Davidson diagonalization with overlap
     ethr =  6.70E-06,  avg # of iterations =  4.4

     total cpu time spent up to now is     4459.4 secs

     total energy              =    -352.51131912 Ry
     Harris-Foulkes estimate   =    -352.51133674 Ry
     estimated scf accuracy    <       0.00045465 Ry

     iteration # 10     ecut=    50.00 Ry     beta=0.60
     Davidson diagonalization with overlap
     ethr =  1.20E-06,  avg # of iterations =  3.7

     total cpu time spent up to now is     4494.0 secs

     total energy              =    -352.51135181 Ry
     Harris-Foulkes estimate   =    -352.51133561 Ry
     estimated scf accuracy    <       0.00032098 Ry

     iteration # 11     ecut=    50.00 Ry     beta=0.60
     Davidson diagonalization with overlap
     ethr =  8.45E-07,  avg # of iterations =  1.0

     total cpu time spent up to now is     4524.6 secs

     total energy              =    -352.51129651 Ry
     Harris-Foulkes estimate   =    -352.51135608 Ry
     estimated scf accuracy    <       0.00048384 Ry

     iteration # 12     ecut=    50.00 Ry     beta=0.60
     Davidson diagonalization with overlap
     ethr =  8.45E-07,  avg # of iterations =  1.1

     total cpu time spent up to now is     4555.3 secs

     total energy              =    -352.51130158 Ry
     Harris-Foulkes estimate   =    -352.51131152 Ry
     estimated scf accuracy    <       0.00011258 Ry

     iteration # 13     ecut=    50.00 Ry     beta=0.60
     Davidson diagonalization with overlap
     ethr =  2.96E-07,  avg # of iterations =  3.7

     total cpu time spent up to now is     4591.8 secs

     total energy              =    -352.51131325 Ry
     Harris-Foulkes estimate   =    -352.51131334 Ry
     estimated scf accuracy    <       0.00000267 Ry

     iteration # 14     ecut=    50.00 Ry     beta=0.60
     Davidson diagonalization with overlap
     ethr =  7.02E-09,  avg # of iterations =  3.5

     total cpu time spent up to now is     4629.6 secs

     total energy              =    -352.51131349 Ry
     Harris-Foulkes estimate   =    -352.51131371 Ry
     estimated scf accuracy    <       0.00000288 Ry

     iteration # 15     ecut=    50.00 Ry     beta=0.60
     Davidson diagonalization with overlap
     ethr =  7.02E-09,  avg # of iterations =  1.0

     total cpu time spent up to now is     4660.0 secs

     total energy              =    -352.51131346 Ry
     Harris-Foulkes estimate   =    -352.51131352 Ry
     estimated scf accuracy    <       0.00000181 Ry

     iteration # 16     ecut=    50.00 Ry     beta=0.60
     Davidson diagonalization with overlap
     ethr =  4.76E-09,  avg # of iterations =  1.0

     total cpu time spent up to now is     4690.4 secs

     total energy              =    -352.51131330 Ry
     Harris-Foulkes estimate   =    -352.51131347 Ry
     estimated scf accuracy    <       0.00000155 Ry

     iteration # 17     ecut=    50.00 Ry     beta=0.60
     Davidson diagonalization with overlap
     ethr =  4.07E-09,  avg # of iterations =  2.2

     total cpu time spent up to now is     4722.7 secs

     total energy              =    -352.51131334 Ry
     Harris-Foulkes estimate   =    -352.51131336 Ry
     estimated scf accuracy    <       0.00000026 Ry

     iteration # 18     ecut=    50.00 Ry     beta=0.60
     Davidson diagonalization with overlap
     ethr =  6.73E-10,  avg # of iterations =  4.0

     total cpu time spent up to now is     4760.6 secs

     total energy              =    -352.51131338 Ry
     Harris-Foulkes estimate   =    -352.51131338 Ry
     estimated scf accuracy    <          8.3E-09 Ry

     iteration # 19     ecut=    50.00 Ry     beta=0.60
     Davidson diagonalization with overlap
     ethr =  2.18E-11,  avg # of iterations =  4.4

     total cpu time spent up to now is     4803.5 secs

     total energy              =    -352.51131338 Ry
     Harris-Foulkes estimate   =    -352.51131338 Ry
     estimated scf accuracy    <          7.7E-09 Ry

     iteration # 20     ecut=    50.00 Ry     beta=0.60
     Davidson diagonalization with overlap
     ethr =  2.02E-11,  avg # of iterations =  1.0

     total cpu time spent up to now is     4834.1 secs

     total energy              =    -352.51131338 Ry
     Harris-Foulkes estimate   =    -352.51131338 Ry
     estimated scf accuracy    <          4.2E-09 Ry

     iteration # 21     ecut=    50.00 Ry     beta=0.60
     Davidson diagonalization with overlap
     ethr =  1.11E-11,  avg # of iterations =  2.0

     total cpu time spent up to now is     4865.9 secs

     total energy              =    -352.51131338 Ry
     Harris-Foulkes estimate   =    -352.51131338 Ry
     estimated scf accuracy    <          8.7E-10 Ry

     iteration # 22     ecut=    50.00 Ry     beta=0.60
     Davidson diagonalization with overlap
     ethr =  2.29E-12,  avg # of iterations =  3.6

     total cpu time spent up to now is     4902.2 secs

     End of self-consistent calculation

     Number of k-points >= 100: set verbosity='high' to print the bands.

     the Fermi energy is    16.4241 ev

!    total energy              =    -352.51131338 Ry
     Harris-Foulkes estimate   =    -352.51131338 Ry
     estimated scf accuracy    <          3.5E-11 Ry

     The total energy is the sum of the following terms:

     one-electron contribution =     -73.69160352 Ry
     hartree contribution      =      54.46984892 Ry
     xc contribution           =     -51.42052113 Ry
     ewald contribution        =    -281.86772865 Ry
     smearing contrib. (-TS)   =      -0.00130901 Ry

     convergence has been achieved in  22 iterations

     Forces acting on atoms (Ry/au):

     atom    1 type  2   force =     0.00000000   -0.00000038    0.00000000
     atom    2 type  1   force =     0.00000000   -0.00688632    0.00000000
     atom    3 type  1   force =     0.00000000    0.00688670    0.00000000

     Total force =     0.009739     Total SCF correction =     0.000015


     entering subroutine stress ...

          total   stress  (Ry/bohr**3)                   (kbar)     P=   -5.08
  -0.00001079  -0.00000000  -0.00000000         -1.59     -0.00     -0.00
  -0.00000000  -0.00008198   0.00000000         -0.00    -12.06      0.00
  -0.00000000  -0.00000000  -0.00001079         -0.00     -0.00     -1.59


     number of scf cycles    =   4
     number of bfgs steps    =   3

     enthalpy old            =    -352.5089781497 Ry
     enthalpy new            =    -352.5113133788 Ry

     CASE: enthalpy_new < enthalpy_old

     new trust radius        =       0.0084269942 bohr
     new conv_thr            =            1.0E-10 Ry

     new unit-cell volume =    358.90797 a.u.^3 (    53.18467 Ang^3 )

CELL_PARAMETERS (alat=  1.88972599)
  -1.647504717   4.898614523  -1.647504717
   1.647504717   4.898614523   1.647504717
   1.647504717  -4.898614523  -1.647504717

ATOMIC_POSITIONS (angstrom)
Ti       1.647504717   1.632873952  -1.647504717
Nb       1.647504717   4.864296908  -1.647504717
Nb       1.647504717  -1.598556336  -1.647504717


     NEW-OLD atomic charge density approx. for the potential
     extrapolated charge   37.87806, renormalised to   38.00000

     total cpu time spent up to now is     4914.8 secs

     per-process dynamical memory:   148.2 Mb

     Self-consistent Calculation

     iteration #  1     ecut=    50.00 Ry     beta=0.60
     Davidson diagonalization with overlap
     ethr =  1.00E-06,  avg # of iterations =  4.3

     total cpu time spent up to now is     4975.7 secs

     total energy              =    -352.50972947 Ry
     Harris-Foulkes estimate   =    -352.67944910 Ry
     estimated scf accuracy    <       0.00137003 Ry

     iteration #  2     ecut=    50.00 Ry     beta=0.60
     Davidson diagonalization with overlap
     ethr =  3.61E-06,  avg # of iterations =  5.6

     total cpu time spent up to now is     5037.7 secs

     total energy              =    -352.51030171 Ry
     Harris-Foulkes estimate   =    -352.51306075 Ry
     estimated scf accuracy    <       0.01246603 Ry

     iteration #  3     ecut=    50.00 Ry     beta=0.60
     Davidson diagonalization with overlap
     ethr =  3.61E-06,  avg # of iterations =  4.6

     total cpu time spent up to now is     5087.6 secs

     total energy              =    -352.51118934 Ry
     Harris-Foulkes estimate   =    -352.51194736 Ry
     estimated scf accuracy    <       0.00294229 Ry

     iteration #  4     ecut=    50.00 Ry     beta=0.60
     Davidson diagonalization with overlap
     ethr =  3.61E-06,  avg # of iterations =  3.7

     total cpu time spent up to now is     5125.7 secs

     total energy              =    -352.51148553 Ry
     Harris-Foulkes estimate   =    -352.51155268 Ry
     estimated scf accuracy    <       0.00059254 Ry

     iteration #  5     ecut=    50.00 Ry     beta=0.60
     Davidson diagonalization with overlap
     ethr =  1.56E-06,  avg # of iterations =  1.1

     total cpu time spent up to now is     5156.4 secs

     total energy              =    -352.51140791 Ry
     Harris-Foulkes estimate   =    -352.51149536 Ry
     estimated scf accuracy    <       0.00035505 Ry

     iteration #  6     ecut=    50.00 Ry     beta=0.60
     Davidson diagonalization with overlap
     ethr =  9.34E-07,  avg # of iterations =  2.9

     total cpu time spent up to now is     5190.2 secs

     total energy              =    -352.51142374 Ry
     Harris-Foulkes estimate   =    -352.51143330 Ry
     estimated scf accuracy    <       0.00003774 Ry

     iteration #  7     ecut=    50.00 Ry     beta=0.60
     Davidson diagonalization with overlap
     ethr =  9.93E-08,  avg # of iterations =  4.1

     total cpu time spent up to now is     5232.4 secs

     total energy              =    -352.51143466 Ry
     Harris-Foulkes estimate   =    -352.51143456 Ry
     estimated scf accuracy    <       0.00000395 Ry

     iteration #  8     ecut=    50.00 Ry     beta=0.60
     Davidson diagonalization with overlap
     ethr =  1.04E-08,  avg # of iterations =  2.5

     total cpu time spent up to now is     5265.6 secs

     total energy              =    -352.51143424 Ry
     Harris-Foulkes estimate   =    -352.51143495 Ry
     estimated scf accuracy    <       0.00000572 Ry

     iteration #  9     ecut=    50.00 Ry     beta=0.60
     Davidson diagonalization with overlap
     ethr =  1.04E-08,  avg # of iterations =  1.0

     total cpu time spent up to now is     5296.0 secs

     total energy              =    -352.51143418 Ry
     Harris-Foulkes estimate   =    -352.51143439 Ry
     estimated scf accuracy    <       0.00000197 Ry

     iteration # 10     ecut=    50.00 Ry     beta=0.60
     Davidson diagonalization with overlap
     ethr =  5.19E-09,  avg # of iterations =  3.0

     total cpu time spent up to now is     5330.2 secs

     total energy              =    -352.51143424 Ry
     Harris-Foulkes estimate   =    -352.51143430 Ry
     estimated scf accuracy    <       0.00000018 Ry

     iteration # 11     ecut=    50.00 Ry     beta=0.60
     Davidson diagonalization with overlap
     ethr =  4.79E-10,  avg # of iterations =  4.4

     total cpu time spent up to now is     5372.6 secs

     total energy              =    -352.51143433 Ry
     Harris-Foulkes estimate   =    -352.51143431 Ry
     estimated scf accuracy    <       0.00000020 Ry

     iteration # 12     ecut=    50.00 Ry     beta=0.60
     Davidson diagonalization with overlap
     ethr =  4.79E-10,  avg # of iterations =  1.0

     total cpu time spent up to now is     5403.2 secs

     total energy              =    -352.51143429 Ry
     Harris-Foulkes estimate   =    -352.51143433 Ry
     estimated scf accuracy    <       0.00000033 Ry

     iteration # 13     ecut=    50.00 Ry     beta=0.60
     Davidson diagonalization with overlap
     ethr =  4.79E-10,  avg # of iterations =  1.0

     total cpu time spent up to now is     5433.7 secs

     total energy              =    -352.51143430 Ry
     Harris-Foulkes estimate   =    -352.51143430 Ry
     estimated scf accuracy    <       0.00000009 Ry

     iteration # 14     ecut=    50.00 Ry     beta=0.60
     Davidson diagonalization with overlap
     ethr =  2.27E-10,  avg # of iterations =  1.0

     total cpu time spent up to now is     5464.1 secs

     total energy              =    -352.51143428 Ry
     Harris-Foulkes estimate   =    -352.51143430 Ry
     estimated scf accuracy    <       0.00000008 Ry

     iteration # 15     ecut=    50.00 Ry     beta=0.60
     Davidson diagonalization with overlap
     ethr =  2.21E-10,  avg # of iterations =  3.5

     total cpu time spent up to now is     5499.6 secs

     total energy              =    -352.51143429 Ry
     Harris-Foulkes estimate   =    -352.51143429 Ry
     estimated scf accuracy    <          3.3E-09 Ry

     iteration # 16     ecut=    50.00 Ry     beta=0.60
     Davidson diagonalization with overlap
     ethr =  8.71E-12,  avg # of iterations =  3.9

     total cpu time spent up to now is     5538.4 secs

     total energy              =    -352.51143429 Ry
     Harris-Foulkes estimate   =    -352.51143429 Ry
     estimated scf accuracy    <          1.7E-09 Ry

     iteration # 17     ecut=    50.00 Ry     beta=0.60
     Davidson diagonalization with overlap
     ethr =  4.60E-12,  avg # of iterations =  1.9

     total cpu time spent up to now is     5570.2 secs

     total energy              =    -352.51143429 Ry
     Harris-Foulkes estimate   =    -352.51143429 Ry
     estimated scf accuracy    <          5.0E-10 Ry

     iteration # 18     ecut=    50.00 Ry     beta=0.60
     Davidson diagonalization with overlap
     ethr =  1.30E-12,  avg # of iterations =  2.2

     total cpu time spent up to now is     5603.1 secs

     total energy              =    -352.51143429 Ry
     Harris-Foulkes estimate   =    -352.51143429 Ry
     estimated scf accuracy    <          1.1E-09 Ry

     iteration # 19     ecut=    50.00 Ry     beta=0.60
     Davidson diagonalization with overlap
     ethr =  1.30E-12,  avg # of iterations =  1.0

     total cpu time spent up to now is     5633.7 secs

     total energy              =    -352.51143429 Ry
     Harris-Foulkes estimate   =    -352.51143429 Ry
     estimated scf accuracy    <          1.2E-09 Ry

     iteration # 20     ecut=    50.00 Ry     beta=0.60
     Davidson diagonalization with overlap
     ethr =  1.30E-12,  avg # of iterations =  1.0

     total cpu time spent up to now is     5664.4 secs

     total energy              =    -352.51143429 Ry
     Harris-Foulkes estimate   =    -352.51143429 Ry
     estimated scf accuracy    <          8.1E-10 Ry

     iteration # 21     ecut=    50.00 Ry     beta=0.60
     Davidson diagonalization with overlap
     ethr =  1.30E-12,  avg # of iterations =  2.2

     total cpu time spent up to now is     5696.6 secs

     total energy              =    -352.51143429 Ry
     Harris-Foulkes estimate   =    -352.51143429 Ry
     estimated scf accuracy    <          1.8E-10 Ry

     iteration # 22     ecut=    50.00 Ry     beta=0.60
     Davidson diagonalization with overlap
     ethr =  4.68E-13,  avg # of iterations =  3.9

     total cpu time spent up to now is     5736.8 secs

     total energy              =    -352.51143429 Ry
     Harris-Foulkes estimate   =    -352.51143429 Ry
     estimated scf accuracy    <          1.6E-10 Ry

     iteration # 23     ecut=    50.00 Ry     beta=0.60
     Davidson diagonalization with overlap
     ethr =  4.21E-13,  avg # of iterations =  1.0

     total cpu time spent up to now is     5767.5 secs

     total energy              =    -352.51143429 Ry
     Harris-Foulkes estimate   =    -352.51143429 Ry
     estimated scf accuracy    <          2.0E-10 Ry

     iteration # 24     ecut=    50.00 Ry     beta=0.60
     Davidson diagonalization with overlap
     ethr =  4.21E-13,  avg # of iterations =  1.0

     total cpu time spent up to now is     5798.0 secs

     End of self-consistent calculation

     Number of k-points >= 100: set verbosity='high' to print the bands.

     the Fermi energy is    16.4880 ev

!    total energy              =    -352.51143429 Ry
     Harris-Foulkes estimate   =    -352.51143429 Ry
     estimated scf accuracy    <          6.9E-11 Ry

     The total energy is the sum of the following terms:

     one-electron contribution =     -73.29213462 Ry
     hartree contribution      =      54.36762930 Ry
     xc contribution           =     -51.43148661 Ry
     ewald contribution        =    -282.15412043 Ry
     smearing contrib. (-TS)   =      -0.00132193 Ry

     convergence has been achieved in  24 iterations

     Forces acting on atoms (Ry/au):

     atom    1 type  2   force =    -0.00000000    0.00000006    0.00000000
     atom    2 type  1   force =     0.00000000   -0.00522607    0.00000000
     atom    3 type  1   force =    -0.00000000    0.00522601    0.00000000

     Total force =     0.007391     Total SCF correction =     0.000017


     entering subroutine stress ...

          total   stress  (Ry/bohr**3)                   (kbar)     P=    0.25
   0.00002297  -0.00000000   0.00000000          3.38     -0.00      0.00
   0.00000000  -0.00004083  -0.00000000          0.00     -6.01     -0.00
   0.00000000   0.00000000   0.00002297          0.00      0.00      3.38


     number of scf cycles    =   5
     number of bfgs steps    =   4

     enthalpy old            =    -352.5113133788 Ry
     enthalpy new            =    -352.5114342931 Ry

     CASE: enthalpy_new < enthalpy_old

     new trust radius        =       0.0092750486 bohr
     new conv_thr            =            1.0E-10 Ry

     new unit-cell volume =    358.44752 a.u.^3 (    53.11644 Ang^3 )

CELL_PARAMETERS (alat=  1.88972599)
  -1.648408091   4.886969242  -1.648408091
   1.648408091   4.886969242   1.648408091
   1.648408091  -4.886969242  -1.648408091

ATOMIC_POSITIONS (angstrom)
Ti       1.648408091   1.628992171  -1.648408091
Nb       1.648408091   4.847836747  -1.648408091
Nb       1.648408091  -1.589859676  -1.648408091


     NEW-OLD atomic charge density approx. for the potential
     extrapolated charge   37.95248, renormalised to   38.00000

     total cpu time spent up to now is     5810.7 secs

     per-process dynamical memory:   155.2 Mb

     Self-consistent Calculation

     iteration #  1     ecut=    50.00 Ry     beta=0.60
     Davidson diagonalization with overlap
     ethr =  1.00E-06,  avg # of iterations =  4.0

     total cpu time spent up to now is     5871.8 secs

     total energy              =    -352.51124528 Ry
     Harris-Foulkes estimate   =    -352.57693561 Ry
     estimated scf accuracy    <       0.00032770 Ry

     iteration #  2     ecut=    50.00 Ry     beta=0.60
     Davidson diagonalization with overlap
     ethr =  8.62E-07,  avg # of iterations =  4.8

     total cpu time spent up to now is     5924.6 secs

     total energy              =    -352.51123683 Ry
     Harris-Foulkes estimate   =    -352.51181133 Ry
     estimated scf accuracy    <       0.00212039 Ry

     iteration #  3     ecut=    50.00 Ry     beta=0.60
     Davidson diagonalization with overlap
     ethr =  8.62E-07,  avg # of iterations =  4.8

     total cpu time spent up to now is     5970.7 secs

     total energy              =    -352.51149980 Ry
     Harris-Foulkes estimate   =    -352.51169058 Ry
     estimated scf accuracy    <       0.00133664 Ry

     iteration #  4     ecut=    50.00 Ry     beta=0.60
     Davidson diagonalization with overlap
     ethr =  8.62E-07,  avg # of iterations =  3.8

     total cpu time spent up to now is     6006.3 secs

     total energy              =    -352.51153883 Ry
     Harris-Foulkes estimate   =    -352.51155768 Ry
     estimated scf accuracy    <       0.00012847 Ry

     iteration #  5     ecut=    50.00 Ry     beta=0.60
     Davidson diagonalization with overlap
     ethr =  3.38E-07,  avg # of iterations =  2.9

     total cpu time spent up to now is     6040.0 secs

     total energy              =    -352.51153848 Ry
     Harris-Foulkes estimate   =    -352.51154817 Ry
     estimated scf accuracy    <       0.00002742 Ry

     iteration #  6     ecut=    50.00 Ry     beta=0.60
     Davidson diagonalization with overlap
     ethr =  7.22E-08,  avg # of iterations =  4.8

     total cpu time spent up to now is     6082.0 secs

     total energy              =    -352.51154557 Ry
     Harris-Foulkes estimate   =    -352.51154605 Ry
     estimated scf accuracy    <       0.00000534 Ry

     iteration #  7     ecut=    50.00 Ry     beta=0.60
     Davidson diagonalization with overlap
     ethr =  1.40E-08,  avg # of iterations =  1.5

     total cpu time spent up to now is     6112.8 secs

     total energy              =    -352.51154554 Ry
     Harris-Foulkes estimate   =    -352.51154577 Ry
     estimated scf accuracy    <       0.00000258 Ry

     iteration #  8     ecut=    50.00 Ry     beta=0.60
     Davidson diagonalization with overlap
     ethr =  6.80E-09,  avg # of iterations =  2.2

     total cpu time spent up to now is     6144.9 secs

     total energy              =    -352.51154548 Ry
     Harris-Foulkes estimate   =    -352.51154564 Ry
     estimated scf accuracy    <       0.00000077 Ry

     iteration #  9     ecut=    50.00 Ry     beta=0.60
     Davidson diagonalization with overlap
     ethr =  2.02E-09,  avg # of iterations =  3.9

     total cpu time spent up to now is     6182.3 secs

     total energy              =    -352.51154560 Ry
     Harris-Foulkes estimate   =    -352.51154561 Ry
     estimated scf accuracy    <       0.00000007 Ry

     iteration # 10     ecut=    50.00 Ry     beta=0.60
     Davidson diagonalization with overlap
     ethr =  1.92E-10,  avg # of iterations =  2.7

     total cpu time spent up to now is     6216.0 secs

     total energy              =    -352.51154560 Ry
     Harris-Foulkes estimate   =    -352.51154560 Ry
     estimated scf accuracy    <       0.00000002 Ry

     iteration # 11     ecut=    50.00 Ry     beta=0.60
     Davidson diagonalization with overlap
     ethr =  4.36E-11,  avg # of iterations =  3.9

     total cpu time spent up to now is     6253.8 secs

     total energy              =    -352.51154560 Ry
     Harris-Foulkes estimate   =    -352.51154560 Ry
     estimated scf accuracy    <          7.3E-10 Ry

     iteration # 12     ecut=    50.00 Ry     beta=0.60
     Davidson diagonalization with overlap
     ethr =  1.93E-12,  avg # of iterations =  3.7

     total cpu time spent up to now is     6294.6 secs

     End of self-consistent calculation

     Number of k-points >= 100: set verbosity='high' to print the bands.

     the Fermi energy is    16.5141 ev

!    total energy              =    -352.51154560 Ry
     Harris-Foulkes estimate   =    -352.51154560 Ry
     estimated scf accuracy    <          5.8E-11 Ry

     The total energy is the sum of the following terms:

     one-electron contribution =     -73.18943319 Ry
     hartree contribution      =      54.35422770 Ry
     xc contribution           =     -51.43686319 Ry
     ewald contribution        =    -282.23813342 Ry
     smearing contrib. (-TS)   =      -0.00134351 Ry

     convergence has been achieved in  12 iterations

     Forces acting on atoms (Ry/au):

     atom    1 type  2   force =     0.00000000    0.00000124   -0.00000000
     atom    2 type  1   force =    -0.00000000   -0.00302507    0.00000000
     atom    3 type  1   force =     0.00000000    0.00302383    0.00000000

     Total force =     0.004277     Total SCF correction =     0.000023


     entering subroutine stress ...

          total   stress  (Ry/bohr**3)                   (kbar)     P=    3.02
   0.00003719  -0.00000000  -0.00000000          5.47     -0.00     -0.00
   0.00000000  -0.00001283  -0.00000000          0.00     -1.89     -0.00
  -0.00000000  -0.00000000   0.00003719         -0.00     -0.00      5.47


     number of scf cycles    =   6
     number of bfgs steps    =   5

     enthalpy old            =    -352.5114342931 Ry
     enthalpy new            =    -352.5115456029 Ry

     CASE: enthalpy_new < enthalpy_old

     new trust radius        =       0.0138794991 bohr
     new conv_thr            =            1.0E-10 Ry

     new unit-cell volume =    358.71548 a.u.^3 (    53.15615 Ang^3 )

CELL_PARAMETERS (alat=  1.88972599)
  -1.651552244   4.872019165  -1.651552244
   1.651552244   4.872019165   1.651552244
   1.651552244  -4.872019165  -1.651552244

ATOMIC_POSITIONS (angstrom)
Ti       1.651552244   1.624009855  -1.651552244
Nb       1.651552244   4.825684138  -1.651552244
Nb       1.651552244  -1.577674827  -1.651552244


     NEW-OLD atomic charge density approx. for the potential
     extrapolated charge   38.02763, renormalised to   38.00000

     total cpu time spent up to now is     6307.3 secs

     per-process dynamical memory:   155.0 Mb

     Self-consistent Calculation

     iteration #  1     ecut=    50.00 Ry     beta=0.60
     Davidson diagonalization with overlap
     ethr =  1.00E-06,  avg # of iterations =  5.2

     total cpu time spent up to now is     6373.4 secs

     total energy              =    -352.51080929 Ry
     Harris-Foulkes estimate   =    -352.47362368 Ry
     estimated scf accuracy    <       0.00110183 Ry

     iteration #  2     ecut=    50.00 Ry     beta=0.60
     Davidson diagonalization with overlap
     ethr =  2.90E-06,  avg # of iterations =  5.5

     total cpu time spent up to now is     6428.2 secs

     total energy              =    -352.50859150 Ry
     Harris-Foulkes estimate   =    -352.51495609 Ry
     estimated scf accuracy    <       0.04313167 Ry

     iteration #  3     ecut=    50.00 Ry     beta=0.60
     Davidson diagonalization with overlap
     ethr =  2.90E-06,  avg # of iterations =  5.3

     total cpu time spent up to now is     6481.4 secs

     total energy              =    -352.51163547 Ry
     Harris-Foulkes estimate   =    -352.51165119 Ry
     estimated scf accuracy    <       0.00004185 Ry

     iteration #  4     ecut=    50.00 Ry     beta=0.60
     Davidson diagonalization with overlap
     ethr =  1.10E-07,  avg # of iterations =  2.2

     total cpu time spent up to now is     6515.2 secs

     total energy              =    -352.51163531 Ry
     Harris-Foulkes estimate   =    -352.51163919 Ry
     estimated scf accuracy    <       0.00001098 Ry

     iteration #  5     ecut=    50.00 Ry     beta=0.60
     Davidson diagonalization with overlap
     ethr =  2.89E-08,  avg # of iterations =  3.0

     total cpu time spent up to now is     6553.7 secs

     total energy              =    -352.51163719 Ry
     Harris-Foulkes estimate   =    -352.51163736 Ry
     estimated scf accuracy    <       0.00000046 Ry

     iteration #  6     ecut=    50.00 Ry     beta=0.60
     Davidson diagonalization with overlap
     ethr =  1.22E-09,  avg # of iterations =  4.6

     total cpu time spent up to now is     6606.9 secs

     total energy              =    -352.51163732 Ry
     Harris-Foulkes estimate   =    -352.51163756 Ry
     estimated scf accuracy    <       0.00000140 Ry

     iteration #  7     ecut=    50.00 Ry     beta=0.60
     Davidson diagonalization with overlap
     ethr =  1.22E-09,  avg # of iterations =  3.3

[...]
     Davidson diagonalization with overlap
     ethr =  1.00E-13,  avg # of iterations =  1.0

     total cpu time spent up to now is    11257.6 secs

     End of self-consistent calculation

     Number of k-points >= 100: set verbosity='high' to print the bands.

     the Fermi energy is    16.4585 ev

!    total energy              =    -352.51166181 Ry
     Harris-Foulkes estimate   =    -352.51166181 Ry
     estimated scf accuracy    <          1.7E-13 Ry

     The total energy is the sum of the following terms:

     one-electron contribution =     -73.72465416 Ry
     hartree contribution      =      54.52916505 Ry
     xc contribution           =     -51.42965288 Ry
     ewald contribution        =    -281.88511631 Ry
     smearing contrib. (-TS)   =      -0.00140351 Ry

     convergence has been achieved in  10 iterations

     Forces acting on atoms (Ry/au):

     atom    1 type  2   force =     0.00000000   -0.00000004   -0.00000000
     atom    2 type  1   force =     0.00000000   -0.00000624   -0.00000000
     atom    3 type  1   force =    -0.00000000    0.00000627    0.00000000

     Total force =     0.000009     Total SCF correction =     0.000000


     entering subroutine stress ...

          total   stress  (Ry/bohr**3)                   (kbar)     P=   -0.00
  -0.00000006  -0.00000000   0.00000000         -0.01     -0.00      0.00
  -0.00000000   0.00000002   0.00000000         -0.00      0.00      0.00
   0.00000000   0.00000000  -0.00000006          0.00      0.00     -0.01


     bfgs converged in  15 scf cycles and  14 bfgs steps
     (criteria: energy <  1.0E-10, force <  1.0E-05, cell <  1.0E-03)

     End of BFGS Geometry Optimization

     Final enthalpy =    -352.5116618141 Ry
Begin final coordinates
     new unit-cell volume =    359.56261 a.u.^3 (    53.28168 Ang^3 )

CELL_PARAMETERS (alat=  1.88972599)
  -1.655603988   4.859651123  -1.655603988
   1.655603988   4.859651123   1.655603988
   1.655603988  -4.859651123  -1.655603988

ATOMIC_POSITIONS (angstrom)
Ti       1.655603988   1.619888107  -1.655603988
Nb       1.655603988   4.812865519  -1.655603988
Nb       1.655603988  -1.573102502  -1.655603988
End final coordinates



     A final scf calculation at the relaxed structure.
     The G-vectors are recalculated for the final unit cell
     Results may differ from those at the preceding step.

   Info: using nr1, nr2, nr3 values from input

   Info: using nr1, nr2, nr3 values from input

     Parallelization info
     --------------------
     sticks:   dense  smooth     PW     G-vecs:    dense   smooth      PW
     Min         809     320    115                16977     4279     942
     Max         810     321    116                16979     4281     943
     Sum        3239    1283    461                67913    17121    3769



     bravais-lattice index     =            0
     lattice parameter (alat)  =       1.8897  a.u.
     unit-cell volume          =     359.5626 (a.u.)^3
     number of atoms/cell      =            3
     number of atomic types    =            2
     number of electrons       =        38.00
     number of Kohn-Sham states=           23
     kinetic-energy cutoff     =      50.0000  Ry
     charge density cutoff     =     500.0000  Ry
     convergence threshold     =      1.0E-12
     mixing beta               =       0.6000
     number of iterations used =            8  plain     mixing
     Exchange-correlation      = SLA  PW   PBE  PBE ( 1  4  3  4 0 0)

     celldm(1)=   1.889726  celldm(2)=   0.000000  celldm(3)=   0.000000
     celldm(4)=   0.000000  celldm(5)=   0.000000  celldm(6)=   0.000000

     crystal axes: (cart. coord. in units of alat)
               a(1) = (  -1.655604   4.859651  -1.655604 )  
               a(2) = (   1.655604   4.859651   1.655604 )  
               a(3) = (   1.655604  -4.859651  -1.655604 )  

     reciprocal axes: (cart. coord. in units 2 pi/alat)
               b(1) = ( -0.000000  0.102888 -0.302005 )  
               b(2) = (  0.302005  0.102888  0.000000 )  
               b(3) = (  0.302005  0.000000 -0.302005 )  


     PseudoPot. # 1 for Nb read from file:
     ./Nb.pbe-nsp-van.UPF
     MD5 check sum: 0a22fc7fb0ba19a08ca5db297a5d2854
     Pseudo is Ultrasoft + core correction, Zval = 13.0
     Generated by new atomic code, or converted to UPF format
     Using radial grid of  887 points,  6 beta functions with: 
                l(1) =   0
                l(2) =   0
                l(3) =   1
                l(4) =   1
                l(5) =   2
                l(6) =   2
     Q(r) pseudized with  6 coefficients,  rinner =    1.000   1.000   1.000
                                                       1.000   1.000

     PseudoPot. # 2 for Ti read from file:
     ./Ti.pbe-sp-van_ak.UPF
     MD5 check sum: f98fea3e8887528921fefa5636a534ca
     Pseudo is Ultrasoft, Zval = 12.0
     Generated by new atomic code, or converted to UPF format
     Using radial grid of  851 points,  6 beta functions with: 
                l(1) =   0
                l(2) =   0
                l(3) =   1
                l(4) =   1
                l(5) =   2
                l(6) =   2
     Q(r) pseudized with  8 coefficients,  rinner =    1.000   1.000   1.000
                                                       1.000   1.000

     atomic species   valence    mass     pseudopotential
        Nb            13.00    92.90638     Nb( 1.00)
        Ti            12.00    47.86700     Ti( 1.00)

      8 Sym. Ops. (no inversion) found
          (note:  8 additional sym.ops. were found but ignored
           their fractional translations are incommensurate with FFT grid)


   Cartesian axes

     site n.     atom                  positions (alat units)
         1           Ti  tau(   1) = (   1.6556041   1.6198882  -1.6556041  )
         2           Nb  tau(   2) = (   1.6556041   4.8128659  -1.6556041  )
         3           Nb  tau(   3) = (   1.6556041  -1.5731026  -1.6556041  )

     number of k points=   244  Marzari-Vanderbilt smearing, width (Ry)=  0.0200

     Number of k-points >= 100: set verbosity='high' to print them.

     Dense  grid:    67913 G-vectors     FFT dimensions: (  80,  80,  80)

     Smooth grid:    17121 G-vectors     FFT dimensions: (  50,  50,  50)

     Estimated max dynamical RAM per process >      64.06Mb

     Estimated total allocated dynamical RAM >     256.25Mb

     Initial potential from superposition of free atoms

     starting charge   36.99449, renormalised to   38.00000
     Starting wfc are   36 randomized atomic wfcs

     total cpu time spent up to now is    11284.7 secs

     per-process dynamical memory:   135.3 Mb

     Self-consistent Calculation

     iteration #  1     ecut=    50.00 Ry     beta=0.60
     Davidson diagonalization with overlap
     ethr =  1.00E-06,  avg # of iterations = 11.2

     total cpu time spent up to now is    11376.3 secs

     total energy              =    -342.60608197 Ry
     Harris-Foulkes estimate   =    -353.74711938 Ry
     estimated scf accuracy    <      14.03898991 Ry

     iteration #  2     ecut=    50.00 Ry     beta=0.60
     Davidson diagonalization with overlap
     ethr =  1.00E-02,  avg # of iterations =  5.8

     total cpu time spent up to now is    11439.7 secs

     total energy              =    -340.03361609 Ry
     Harris-Foulkes estimate   =    -366.68192640 Ry
     estimated scf accuracy    <      90.42399152 Ry

     iteration #  3     ecut=    50.00 Ry     beta=0.60
     Davidson diagonalization with overlap
     ethr =  1.00E-02,  avg # of iterations =  3.4

     total cpu time spent up to now is    11487.7 secs

     total energy              =    -352.82093762 Ry
     Harris-Foulkes estimate   =    -353.27410334 Ry
     estimated scf accuracy    <       4.09154832 Ry

     iteration #  4     ecut=    50.00 Ry     beta=0.60
     Davidson diagonalization with overlap
     ethr =  1.00E-02,  avg # of iterations =  1.0

     total cpu time spent up to now is    11517.0 secs

     total energy              =    -352.56975713 Ry
     Harris-Foulkes estimate   =    -352.86710115 Ry
     estimated scf accuracy    <       2.68743674 Ry

     iteration #  5     ecut=    50.00 Ry     beta=0.60
     Davidson diagonalization with overlap
     ethr =  7.07E-03,  avg # of iterations =  1.3

     total cpu time spent up to now is    11547.7 secs

     total energy              =    -352.03474465 Ry
     Harris-Foulkes estimate   =    -352.61749676 Ry
     estimated scf accuracy    <       1.61495115 Ry

     iteration #  6     ecut=    50.00 Ry     beta=0.60
     Davidson diagonalization with overlap
     ethr =  4.25E-03,  avg # of iterations =  4.3

     total cpu time spent up to now is    11593.3 secs

     total energy              =    -352.00948429 Ry
     Harris-Foulkes estimate   =    -352.85706147 Ry
     estimated scf accuracy    <       6.74233160 Ry

     iteration #  7     ecut=    50.00 Ry     beta=0.60
     Davidson diagonalization with overlap
     ethr =  4.25E-03,  avg # of iterations =  3.8

     total cpu time spent up to now is    11626.7 secs

     total energy              =    -352.50447516 Ry
     Harris-Foulkes estimate   =    -352.50581029 Ry
     estimated scf accuracy    <       0.03095529 Ry

     iteration #  8     ecut=    50.00 Ry     beta=0.60
     Davidson diagonalization with overlap
     ethr =  8.15E-05,  avg # of iterations =  6.8

     total cpu time spent up to now is    11678.9 secs

     total energy              =    -352.51031363 Ry
     Harris-Foulkes estimate   =    -352.51868994 Ry
     estimated scf accuracy    <       0.06112740 Ry

     iteration #  9     ecut=    50.00 Ry     beta=0.60
     Davidson diagonalization with overlap
     ethr =  8.15E-05,  avg # of iterations =  1.1

     total cpu time spent up to now is    11708.4 secs

     total energy              =    -352.51191710 Ry
     Harris-Foulkes estimate   =    -352.51193072 Ry
     estimated scf accuracy    <       0.01746563 Ry

     iteration # 10     ecut=    50.00 Ry     beta=0.60
     Davidson diagonalization with overlap
     ethr =  4.60E-05,  avg # of iterations =  2.0

     total cpu time spent up to now is    11738.9 secs

     total energy              =    -352.51082069 Ry
     Harris-Foulkes estimate   =    -352.51235812 Ry
     estimated scf accuracy    <       0.01619918 Ry

     iteration # 11     ecut=    50.00 Ry     beta=0.60
     Davidson diagonalization with overlap
     ethr =  4.26E-05,  avg # of iterations =  1.7

     total cpu time spent up to now is    11768.6 secs

     total energy              =    -352.51053291 Ry
     Harris-Foulkes estimate   =    -352.51122109 Ry
     estimated scf accuracy    <       0.00722226 Ry

     iteration # 12     ecut=    50.00 Ry     beta=0.60
     Davidson diagonalization with overlap
     ethr =  1.90E-05,  avg # of iterations =  4.9

     total cpu time spent up to now is    11806.7 secs

     total energy              =    -352.51130582 Ry
     Harris-Foulkes estimate   =    -352.51131462 Ry
     estimated scf accuracy    <       0.00021725 Ry

     iteration # 13     ecut=    50.00 Ry     beta=0.60
     Davidson diagonalization with overlap
     ethr =  5.72E-07,  avg # of iterations =  4.3

     total cpu time spent up to now is    11843.2 secs

     total energy              =    -352.51130974 Ry
     Harris-Foulkes estimate   =    -352.51134171 Ry
     estimated scf accuracy    <       0.00012339 Ry

     iteration # 14     ecut=    50.00 Ry     beta=0.60
     Davidson diagonalization with overlap
     ethr =  3.25E-07,  avg # of iterations =  1.6

     total cpu time spent up to now is    11874.6 secs

     total energy              =    -352.51130810 Ry
     Harris-Foulkes estimate   =    -352.51131797 Ry
     estimated scf accuracy    <       0.00005961 Ry

     iteration # 15     ecut=    50.00 Ry     beta=0.60
     Davidson diagonalization with overlap
     ethr =  1.57E-07,  avg # of iterations =  2.9

     total cpu time spent up to now is    11908.8 secs

     total energy              =    -352.51130591 Ry
     Harris-Foulkes estimate   =    -352.51131797 Ry
     estimated scf accuracy    <       0.00011156 Ry

     iteration # 16     ecut=    50.00 Ry     beta=0.60
     Davidson diagonalization with overlap
     ethr =  1.57E-07,  avg # of iterations =  1.0

     total cpu time spent up to now is    11938.1 secs

     total energy              =    -352.51130364 Ry
     Harris-Foulkes estimate   =    -352.51130845 Ry
     estimated scf accuracy    <       0.00003858 Ry

     iteration # 17     ecut=    50.00 Ry     beta=0.60
     Davidson diagonalization with overlap
     ethr =  1.02E-07,  avg # of iterations =  3.0

     total cpu time spent up to now is    11970.9 secs

     total energy              =    -352.51130573 Ry
     Harris-Foulkes estimate   =    -352.51130602 Ry
     estimated scf accuracy    <       0.00000338 Ry

     iteration # 18     ecut=    50.00 Ry     beta=0.60
     Davidson diagonalization with overlap
     ethr =  8.91E-09,  avg # of iterations =  3.3

     total cpu time spent up to now is    12004.1 secs

     total energy              =    -352.51130604 Ry
     Harris-Foulkes estimate   =    -352.51130610 Ry
     estimated scf accuracy    <       0.00000056 Ry

     iteration # 19     ecut=    50.00 Ry     beta=0.60
     Davidson diagonalization with overlap
     ethr =  1.47E-09,  avg # of iterations =  3.8

     total cpu time spent up to now is    12048.1 secs

     total energy              =    -352.51130614 Ry
     Harris-Foulkes estimate   =    -352.51130614 Ry
     estimated scf accuracy    <       0.00000002 Ry

     iteration # 20     ecut=    50.00 Ry     beta=0.60
     Davidson diagonalization with overlap
     ethr =  4.82E-11,  avg # of iterations =  4.3

     total cpu time spent up to now is    12099.8 secs

     total energy              =    -352.51130614 Ry
     Harris-Foulkes estimate   =    -352.51130614 Ry
     estimated scf accuracy    <          2.0E-09 Ry

     iteration # 21     ecut=    50.00 Ry     beta=0.60
     Davidson diagonalization with overlap
     ethr =  5.20E-12,  avg # of iterations =  3.9

     total cpu time spent up to now is    12155.4 secs

     total energy              =    -352.51130614 Ry
     Harris-Foulkes estimate   =    -352.51130614 Ry
     estimated scf accuracy    <          1.7E-09 Ry

     iteration # 22     ecut=    50.00 Ry     beta=0.60
     Davidson diagonalization with overlap
     ethr =  4.36E-12,  avg # of iterations =  1.0

     total cpu time spent up to now is    12185.8 secs

     total energy              =    -352.51130614 Ry
     Harris-Foulkes estimate   =    -352.51130614 Ry
     estimated scf accuracy    <          4.4E-10 Ry

     iteration # 23     ecut=    50.00 Ry     beta=0.60
     Davidson diagonalization with overlap
     ethr =  1.15E-12,  avg # of iterations =  4.0

     total cpu time spent up to now is    12223.7 secs

     total energy              =    -352.51130614 Ry
     Harris-Foulkes estimate   =    -352.51130614 Ry
     estimated scf accuracy    <          8.8E-11 Ry

     iteration # 24     ecut=    50.00 Ry     beta=0.60
     Davidson diagonalization with overlap
     ethr =  2.31E-13,  avg # of iterations =  1.3

     total cpu time spent up to now is    12253.7 secs

     total energy              =    -352.51130614 Ry
     Harris-Foulkes estimate   =    -352.51130614 Ry
     estimated scf accuracy    <          4.1E-11 Ry

     iteration # 25     ecut=    50.00 Ry     beta=0.60
     Davidson diagonalization with overlap
     ethr =  1.08E-13,  avg # of iterations =  3.0

     total cpu time spent up to now is    12296.2 secs

     total energy              =    -352.51130614 Ry
     Harris-Foulkes estimate   =    -352.51130614 Ry
     estimated scf accuracy    <          2.1E-12 Ry

     iteration # 26     ecut=    50.00 Ry     beta=0.60
     Davidson diagonalization with overlap
     ethr =  1.00E-13,  avg # of iterations =  1.1

     total cpu time spent up to now is    12325.9 secs

     End of self-consistent calculation

     Number of k-points >= 100: set verbosity='high' to print the bands.

     the Fermi energy is    16.4587 ev

!    total energy              =    -352.51130614 Ry
     Harris-Foulkes estimate   =    -352.51130614 Ry
     estimated scf accuracy    <          1.3E-13 Ry

     The total energy is the sum of the following terms:

     one-electron contribution =     -73.72446274 Ry
     hartree contribution      =      54.52929179 Ry
     xc contribution           =     -51.42961537 Ry
     ewald contribution        =    -281.88511631 Ry
     smearing contrib. (-TS)   =      -0.00140352 Ry

     convergence has been achieved in  26 iterations

     Forces acting on atoms (Ry/au):

     atom    1 type  2   force =     0.00000000   -0.00000214   -0.00000000
     atom    2 type  1   force =     0.00000000   -0.00002210   -0.00000000
     atom    3 type  1   force =    -0.00000000    0.00002425    0.00000000

     Total force =     0.000033     Total SCF correction =     0.000001


     entering subroutine stress ...

          total   stress  (Ry/bohr**3)                   (kbar)     P=   -1.17
  -0.00000801   0.00000000  -0.00000000         -1.18      0.00     -0.00
   0.00000000  -0.00000774  -0.00000000          0.00     -1.14     -0.00
  -0.00000000   0.00000000  -0.00000801         -0.00      0.00     -1.18


     init_run     :     35.25s CPU     36.14s WALL (       2 calls)
     electrons    :  11807.50s CPU  12101.98s WALL (      16 calls)
     update_pot   :     31.83s CPU     32.03s WALL (      14 calls)
     forces       :     51.18s CPU     52.28s WALL (      16 calls)
     stress       :    103.23s CPU    105.72s WALL (      16 calls)

     Called by init_run:
     wfcinit      :     32.11s CPU     32.89s WALL (       2 calls)
     potinit      :      1.06s CPU      1.08s WALL (       2 calls)

     Called by electrons:
     c_bands      :   9564.19s CPU   9789.32s WALL (     307 calls)
     sum_band     :   2123.05s CPU   2177.79s WALL (     307 calls)
     v_of_rho     :     53.82s CPU     56.77s WALL (     317 calls)
     newd         :     58.04s CPU     69.69s WALL (     317 calls)
     mix_rho      :      8.01s CPU      8.31s WALL (     307 calls)

     Called by c_bands:
     init_us_2    :     94.45s CPU     96.01s WALL (  158112 calls)
     cegterg      :   9384.68s CPU   9606.89s WALL (   74908 calls)

     Called by sum_band:
     sum_band:bec :      4.32s CPU      4.43s WALL (   74908 calls)
     addusdens    :     59.93s CPU     74.73s WALL (     307 calls)

     Called by *egterg:
     h_psi        :   7698.47s CPU   7901.52s WALL (  309650 calls)
     s_psi        :    261.55s CPU    263.93s WALL (  309650 calls)
     g_psi        :     13.38s CPU     13.51s WALL (  234254 calls)
     cdiaghg      :    398.59s CPU    403.28s WALL (  304282 calls)

     Called by h_psi:
     h_psi:pot    :   7661.22s CPU   7863.37s WALL (  309650 calls)
     h_psi:calbec :    438.72s CPU    449.65s WALL (  309650 calls)
     vloc_psi     :   6953.03s CPU   7139.70s WALL (  309650 calls)
     add_vuspsi   :    267.67s CPU    272.46s WALL (  309650 calls)

     General routines
     calbec       :    619.17s CPU    633.68s WALL (  404078 calls)
     fft          :     48.66s CPU     52.20s WALL (    5446 calls)
     ffts         :      0.62s CPU      0.64s WALL (     624 calls)
     fftw         :   5244.82s CPU   5374.43s WALL (10632128 calls)
     interpolate  :      7.89s CPU      8.50s WALL (     624 calls)

     Parallel routines
     fft_scatter  :    958.40s CPU    989.13s WALL (10638198 calls)

     PWSCF        :     3h20m CPU        3h25m WALL


   This run was terminated on:  16:13:45   1May2018            

=------------------------------------------------------------------------------=
   JOB DONE.
=------------------------------------------------------------------------------=
