
     Program PWSCF v.6.3MaX starts on 27Jan2020 at 13:37:49 

     This program is part of the open-source Quantum ESPRESSO suite
     for quantum simulation of materials; please cite
         "P. Giannozzi et al., J. Phys.:Condens. Matter 21 395502 (2009);
         "P. Giannozzi et al., J. Phys.:Condens. Matter 29 465901 (2017);
          URL http://www.quantum-espresso.org", 
     in publications or presentations arising from this work. More details at
     http://www.quantum-espresso.org/quote

     Parallel version (MPI), running on     4 processors

     MPI processes distributed on     1 nodes
     R & G space division:  proc/nbgrp/npool/nimage =       4
     Waiting for input...
     Reading input from standard input

     Current dimensions of program PWSCF are:
     Max number of different atomic species (ntypx) = 10
     Max number of k-points (npk) =  40000
     Max angular momentum in pseudopotentials (lmaxx) =  3
     Message from routine iosys:
     minimal I/O required, wf_collect reset to FALSE

     Subspace diagonalization in iterative solution of the eigenvalue problem:
     a serial algorithm will be used

 
     Parallelization info
     --------------------
     sticks:   dense  smooth     PW     G-vecs:    dense   smooth      PW
     Min         780     312     95                27301     6894    1169
     Max         781     313     96                27302     6895    1170
     Sum        3121    1251    383               109205    27577    4677
 


     bravais-lattice index     =            0
     lattice parameter (alat)  =       1.8897  a.u.
     unit-cell volume          =     808.3427 (a.u.)^3
     number of atoms/cell      =            6
     number of atomic types    =            2
     number of electrons       =        76.00
     number of Kohn-Sham states=           46
     kinetic-energy cutoff     =      40.0000  Ry
     charge density cutoff     =     400.0000  Ry
     convergence threshold     =      1.0E-10
     mixing beta               =       0.6000
     number of iterations used =            8  plain     mixing
     Exchange-correlation      = SLA PW PBE PBE ( 1  4  3  4 0 0)
     nstep                     =           50


     celldm(1)=   1.889726  celldm(2)=   0.000000  celldm(3)=   0.000000
     celldm(4)=   0.000000  celldm(5)=   0.000000  celldm(6)=   0.000000

     crystal axes: (cart. coord. in units of alat)
               a(1) = (   3.045004   0.000000   4.972461 )  
               a(2) = (  -1.522502   2.637051   4.972461 )  
               a(3) = (  -1.522502  -2.637051   4.972461 )  

     reciprocal axes: (cart. coord. in units 2 pi/alat)
               b(1) = (  0.218938  0.000000  0.067036 )  
               b(2) = ( -0.109469  0.189606  0.067036 )  
               b(3) = ( -0.109469 -0.189606  0.067036 )  


     PseudoPot. # 1 for Nb read from file:
     ./Nb.pbe-nsp-van.UPF
     MD5 check sum: 0a22fc7fb0ba19a08ca5db297a5d2854
     Pseudo is Ultrasoft + core correction, Zval = 13.0
     Generated by new atomic code, or converted to UPF format
     Using radial grid of  887 points,  6 beta functions with: 
                l(1) =   0
                l(2) =   0
                l(3) =   1
                l(4) =   1
                l(5) =   2
                l(6) =   2
     Q(r) pseudized with  6 coefficients,  rinner =    1.000   1.000   1.000
                                                       1.000   1.000

     PseudoPot. # 2 for Ti read from file:
     ./Ti.pbe-sp-van_ak.UPF
     MD5 check sum: f98fea3e8887528921fefa5636a534ca
     Pseudo is Ultrasoft, Zval = 12.0
     Generated by new atomic code, or converted to UPF format
     Using radial grid of  851 points,  6 beta functions with: 
                l(1) =   0
                l(2) =   0
                l(3) =   1
                l(4) =   1
                l(5) =   2
                l(6) =   2
     Q(r) pseudized with  8 coefficients,  rinner =    1.000   1.000   1.000
                                                       1.000   1.000

     atomic species   valence    mass     pseudopotential
        Nb            13.00    92.90638     Nb( 1.00)
        Ti            12.00    47.86700     Ti( 1.00)

      6 Sym. Ops. (no inversion) found ( 3 have fractional translation)



   Cartesian axes

     site n.     atom                  positions (alat units)
         1           Ti  tau(   1) = (   0.0000000   0.0000000   9.9449228  )
         2           Nb  tau(   2) = (   0.0000015  -1.7580350   7.4586921  )
         3           Ti  tau(   3) = (   0.0000000   0.0000000  14.9173841  )
         4           Nb  tau(   4) = (   1.5225036   0.8790162   7.4586921  )
         5           Nb  tau(   5) = (   0.0000000   0.0000000   4.9724614  )
         6           Nb  tau(   6) = (  -1.5225006   0.8790162   7.4586921  )

     number of k points=   189  Marzari-Vanderbilt smearing, width (Ry)=  0.0200

     Number of k-points >= 100: set verbosity='high' to print them.

     Dense  grid:   109205 G-vectors     FFT dimensions: (  72,  72,  72)

     Smooth grid:    27577 G-vectors     FFT dimensions: (  45,  45,  45)

     Estimated max dynamical RAM per process >     221.27 MB

     Estimated total dynamical RAM >     885.10 MB

     Initial potential from superposition of free atoms

     starting charge   73.98898, renormalised to   76.00000
     Starting wfcs are   72 randomized atomic wfcs

     total cpu time spent up to now is      262.4 secs

     Self-consistent Calculation

     iteration #  1     ecut=    40.00 Ry     beta= 0.60
     Davidson diagonalization with overlap
     ethr =  1.00E-02,  avg # of iterations =  2.2

     total cpu time spent up to now is      286.2 secs

     total energy              =    -672.02941560 Ry
     Harris-Foulkes estimate   =    -708.09715318 Ry
     estimated scf accuracy    <      45.19005628 Ry

     iteration #  2     ecut=    40.00 Ry     beta= 0.60
     Davidson diagonalization with overlap
     ethr =  1.00E-02,  avg # of iterations =  6.8

     total cpu time spent up to now is      340.6 secs

     total energy              =    -682.71037451 Ry
     Harris-Foulkes estimate   =    -758.49133342 Ry
     estimated scf accuracy    <     242.07121203 Ry

     iteration #  3     ecut=    40.00 Ry     beta= 0.60
     Davidson diagonalization with overlap
     ethr =  1.00E-02,  avg # of iterations =  5.0

     total cpu time spent up to now is      385.8 secs

     total energy              =    -706.89174295 Ry
     Harris-Foulkes estimate   =    -710.48603253 Ry
     estimated scf accuracy    <      24.29794257 Ry

     iteration #  4     ecut=    40.00 Ry     beta= 0.60
     Davidson diagonalization with overlap
     ethr =  1.00E-02,  avg # of iterations =  1.7

     total cpu time spent up to now is      407.2 secs

     total energy              =    -707.39037054 Ry
     Harris-Foulkes estimate   =    -707.88736305 Ry
     estimated scf accuracy    <      12.02011923 Ry

     iteration #  5     ecut=    40.00 Ry     beta= 0.60
     Davidson diagonalization with overlap
     ethr =  1.00E-02,  avg # of iterations =  1.0

     total cpu time spent up to now is      427.7 secs

     total energy              =    -706.25954147 Ry
     Harris-Foulkes estimate   =    -707.42881702 Ry
     estimated scf accuracy    <      10.45250900 Ry

     iteration #  6     ecut=    40.00 Ry     beta= 0.60
     Davidson diagonalization with overlap
     ethr =  1.00E-02,  avg # of iterations =  1.0

     total cpu time spent up to now is      449.3 secs

     total energy              =    -704.06790603 Ry
     Harris-Foulkes estimate   =    -706.32740480 Ry
     estimated scf accuracy    <       8.26960061 Ry

     iteration #  7     ecut=    40.00 Ry     beta= 0.60
     Davidson diagonalization with overlap
     ethr =  1.00E-02,  avg # of iterations =  3.6

     total cpu time spent up to now is      474.8 secs

     total energy              =    -704.96666696 Ry
     Harris-Foulkes estimate   =    -704.92230857 Ry
     estimated scf accuracy    <       0.24200311 Ry

     iteration #  8     ecut=    40.00 Ry     beta= 0.60
     Davidson diagonalization with overlap
     ethr =  3.18E-04,  avg # of iterations =  5.4

     total cpu time spent up to now is      512.6 secs

     total energy              =    -704.90434720 Ry
     Harris-Foulkes estimate   =    -705.03955715 Ry
     estimated scf accuracy    <       0.45665025 Ry

     iteration #  9     ecut=    40.00 Ry     beta= 0.60
     Davidson diagonalization with overlap
     ethr =  3.18E-04,  avg # of iterations =  2.7

     total cpu time spent up to now is      539.2 secs

     total energy              =    -704.89994735 Ry
     Harris-Foulkes estimate   =    -704.93091920 Ry
     estimated scf accuracy    <       0.20540317 Ry

     iteration # 10     ecut=    40.00 Ry     beta= 0.60
     Davidson diagonalization with overlap
     ethr =  2.70E-04,  avg # of iterations =  1.2

     total cpu time spent up to now is      561.9 secs

     total energy              =    -704.91062011 Ry
     Harris-Foulkes estimate   =    -704.90807556 Ry
     estimated scf accuracy    <       0.09168232 Ry

     iteration # 11     ecut=    40.00 Ry     beta= 0.60
     Davidson diagonalization with overlap
     ethr =  1.21E-04,  avg # of iterations =  1.3

     total cpu time spent up to now is      583.4 secs

     total energy              =    -704.88136205 Ry
     Harris-Foulkes estimate   =    -704.91346202 Ry
     estimated scf accuracy    <       0.13430518 Ry

     iteration # 12     ecut=    40.00 Ry     beta= 0.60
     Davidson diagonalization with overlap
     ethr =  1.21E-04,  avg # of iterations =  5.0

     total cpu time spent up to now is      621.1 secs

     total energy              =    -704.91937009 Ry
     Harris-Foulkes estimate   =    -704.91987595 Ry
     estimated scf accuracy    <       0.21673051 Ry

     iteration # 13     ecut=    40.00 Ry     beta= 0.60
     Davidson diagonalization with overlap
     ethr =  1.21E-04,  avg # of iterations =  1.0

     total cpu time spent up to now is      640.0 secs

     total energy              =    -704.90272551 Ry
     Harris-Foulkes estimate   =    -704.91952995 Ry
     estimated scf accuracy    <       0.21529915 Ry

     iteration # 14     ecut=    40.00 Ry     beta= 0.60
     Davidson diagonalization with overlap
     ethr =  1.21E-04,  avg # of iterations =  1.0

     total cpu time spent up to now is      659.7 secs

     total energy              =    -704.90225173 Ry
     Harris-Foulkes estimate   =    -704.90732323 Ry
     estimated scf accuracy    <       0.04010425 Ry

     iteration # 15     ecut=    40.00 Ry     beta= 0.60
     Davidson diagonalization with overlap
     ethr =  5.28E-05,  avg # of iterations =  4.5

     total cpu time spent up to now is      687.1 secs

     total energy              =    -704.90677863 Ry
     Harris-Foulkes estimate   =    -704.90679400 Ry
     estimated scf accuracy    <       0.00109872 Ry

     iteration # 16     ecut=    40.00 Ry     beta= 0.60
     Davidson diagonalization with overlap
     c_bands:  1 eigenvalues not converged
     ethr =  1.45E-06,  avg # of iterations =  6.7

     total cpu time spent up to now is      719.1 secs

     total energy              =    -704.90666526 Ry
     Harris-Foulkes estimate   =    -704.90693533 Ry
     estimated scf accuracy    <       0.00237595 Ry

     iteration # 17     ecut=    40.00 Ry     beta= 0.60
     Davidson diagonalization with overlap
     ethr =  1.45E-06,  avg # of iterations =  1.0

     total cpu time spent up to now is      742.2 secs

     total energy              =    -704.90669724 Ry
     Harris-Foulkes estimate   =    -704.90673934 Ry
     estimated scf accuracy    <       0.00035784 Ry

     iteration # 18     ecut=    40.00 Ry     beta= 0.60
     Davidson diagonalization with overlap
     ethr =  4.71E-07,  avg # of iterations =  4.2

     total cpu time spent up to now is      768.7 secs

     total energy              =    -704.90675574 Ry
     Harris-Foulkes estimate   =    -704.90676050 Ry
     estimated scf accuracy    <       0.00005177 Ry

     iteration # 19     ecut=    40.00 Ry     beta= 0.60
     Davidson diagonalization with overlap
     ethr =  6.81E-08,  avg # of iterations =  1.5

     total cpu time spent up to now is      788.6 secs

     total energy              =    -704.90675643 Ry
     Harris-Foulkes estimate   =    -704.90675740 Ry
     estimated scf accuracy    <       0.00001721 Ry

     iteration # 20     ecut=    40.00 Ry     beta= 0.60
     Davidson diagonalization with overlap
     ethr =  2.26E-08,  avg # of iterations =  3.3

     total cpu time spent up to now is      838.9 secs

     total energy              =    -704.90675663 Ry
     Harris-Foulkes estimate   =    -704.90675718 Ry
     estimated scf accuracy    <       0.00000560 Ry

     iteration # 21     ecut=    40.00 Ry     beta= 0.60
     Davidson diagonalization with overlap
     ethr =  7.37E-09,  avg # of iterations =  3.7

     total cpu time spent up to now is      865.5 secs

     total energy              =    -704.90675703 Ry
     Harris-Foulkes estimate   =    -704.90675706 Ry
     estimated scf accuracy    <       0.00000072 Ry

     iteration # 22     ecut=    40.00 Ry     beta= 0.60
     Davidson diagonalization with overlap
     ethr =  9.45E-10,  avg # of iterations =  4.0

     total cpu time spent up to now is      892.4 secs

     total energy              =    -704.90675709 Ry
     Harris-Foulkes estimate   =    -704.90675711 Ry
     estimated scf accuracy    <       0.00000027 Ry

     iteration # 23     ecut=    40.00 Ry     beta= 0.60
     Davidson diagonalization with overlap
     ethr =  3.58E-10,  avg # of iterations =  2.2

     total cpu time spent up to now is      913.9 secs

     total energy              =    -704.90675709 Ry
     Harris-Foulkes estimate   =    -704.90675710 Ry
     estimated scf accuracy    <       0.00000006 Ry

     iteration # 24     ecut=    40.00 Ry     beta= 0.60
     Davidson diagonalization with overlap
     ethr =  8.37E-11,  avg # of iterations =  4.2

     total cpu time spent up to now is      942.4 secs

     total energy              =    -704.90675710 Ry
     Harris-Foulkes estimate   =    -704.90675710 Ry
     estimated scf accuracy    <       0.00000002 Ry

     iteration # 25     ecut=    40.00 Ry     beta= 0.60
     Davidson diagonalization with overlap
     ethr =  2.09E-11,  avg # of iterations =  1.1

     total cpu time spent up to now is      961.4 secs

     total energy              =    -704.90675710 Ry
     Harris-Foulkes estimate   =    -704.90675710 Ry
     estimated scf accuracy    <          3.6E-09 Ry

     iteration # 26     ecut=    40.00 Ry     beta= 0.60
     Davidson diagonalization with overlap
     ethr =  4.71E-12,  avg # of iterations =  3.9

     total cpu time spent up to now is      988.2 secs

     End of self-consistent calculation

     Number of k-points >= 100: set verbosity='high' to print the bands.

     the Fermi energy is    14.6566 ev

!    total energy              =    -704.90675710 Ry
     Harris-Foulkes estimate   =    -704.90675710 Ry
     estimated scf accuracy    <          7.5E-12 Ry

     The total energy is the sum of the following terms:

     one-electron contribution =    -177.55882520 Ry
     hartree contribution      =     117.49146590 Ry
     xc contribution           =    -102.15858314 Ry
     ewald contribution        =    -542.67738042 Ry
     smearing contrib. (-TS)   =      -0.00343424 Ry

     convergence has been achieved in  26 iterations

     Forces acting on atoms (cartesian axes, Ry/au):

     atom    1 type  2   force =     0.00000000    0.00000000   -0.00097310
     atom    2 type  1   force =     0.00071622   -0.00041351    0.00000000
     atom    3 type  2   force =     0.00000000    0.00000000    0.00097310
     atom    4 type  1   force =     0.00000000    0.00082701    0.00000000
     atom    5 type  1   force =     0.00000000    0.00000000    0.00000000
     atom    6 type  1   force =    -0.00071622   -0.00041351    0.00000000

     Total force =     0.001986     Total SCF correction =     0.000003


     Computing stress (Cartesian axis) and pressure

          total   stress  (Ry/bohr**3)                   (kbar)     P= -119.81
  -0.00091137   0.00000000   0.00000000       -134.07      0.00      0.00
  -0.00000000  -0.00091137   0.00000000         -0.00   -134.07      0.00
   0.00000000  -0.00000000  -0.00062067          0.00     -0.00    -91.30


     BFGS Geometry Optimization

     number of scf cycles    =   1
     number of bfgs steps    =   0

     enthalpy new            =    -704.9067571013 Ry

     new trust radius        =       0.1295575715 bohr
     new conv_thr            =            1.0E-10 Ry

     new unit-cell volume =    759.94965 a.u.^3 (   112.61292 Ang^3 )
     density =      6.89147 g/cm^3

CELL_PARAMETERS (alat=  1.88972599)
   2.975625820   0.000000000   4.895305047
  -1.487812910   2.576967738   4.895305047
  -1.487812910  -2.576967738   4.895305047

ATOMIC_POSITIONS (angstrom)
Ti       0.000000000   0.000000000   9.790103143
Nb       0.000371858  -1.718193184   7.342957570
Ti       0.000000000   0.000000000  14.686422092
Nb       1.487814398   0.859416053   7.342957570
Nb       0.000000000   0.000000000   4.895305047
Nb      -1.488181791   0.858774554   7.342957570


     NEW-OLD atomic charge density approx. for the potential

     Check: negative/imaginary core charge=   -0.000001    0.000000
     extrapolated charge   71.28843, renormalised to   76.00000

     total cpu time spent up to now is     1001.4 secs

     Self-consistent Calculation

     iteration #  1     ecut=    40.00 Ry     beta= 0.60
     Davidson diagonalization with overlap
     c_bands:  1 eigenvalues not converged
     c_bands:  1 eigenvalues not converged
     c_bands:  1 eigenvalues not converged
     c_bands:  1 eigenvalues not converged
     c_bands:  1 eigenvalues not converged
     c_bands:  1 eigenvalues not converged
     c_bands:  1 eigenvalues not converged
     c_bands:  2 eigenvalues not converged
     c_bands:  1 eigenvalues not converged
     c_bands:  1 eigenvalues not converged
     c_bands:  1 eigenvalues not converged
     c_bands:  2 eigenvalues not converged
     c_bands:  1 eigenvalues not converged
     c_bands:  1 eigenvalues not converged
     c_bands:  1 eigenvalues not converged
     c_bands:  1 eigenvalues not converged
     c_bands:  1 eigenvalues not converged
     c_bands:  1 eigenvalues not converged
     c_bands:  1 eigenvalues not converged
     c_bands:  1 eigenvalues not converged
     c_bands:  1 eigenvalues not converged
     c_bands:  1 eigenvalues not converged
     c_bands:  1 eigenvalues not converged
     c_bands:  1 eigenvalues not converged
     c_bands:  1 eigenvalues not converged
     c_bands:  1 eigenvalues not converged
     c_bands:  1 eigenvalues not converged
     c_bands:  2 eigenvalues not converged
     c_bands:  1 eigenvalues not converged
     c_bands:  1 eigenvalues not converged
     c_bands:  2 eigenvalues not converged
     c_bands:  1 eigenvalues not converged
     c_bands:  1 eigenvalues not converged
     c_bands:  1 eigenvalues not converged
     c_bands:  1 eigenvalues not converged
     c_bands:  1 eigenvalues not converged
     c_bands:  1 eigenvalues not converged
     c_bands:  1 eigenvalues not converged
     c_bands:  1 eigenvalues not converged
     c_bands:  1 eigenvalues not converged
     c_bands:  1 eigenvalues not converged
     c_bands:  1 eigenvalues not converged
     c_bands:  1 eigenvalues not converged
     c_bands:  1 eigenvalues not converged
     c_bands:  1 eigenvalues not converged
     c_bands:  1 eigenvalues not converged
     c_bands:  1 eigenvalues not converged
     c_bands:  1 eigenvalues not converged
     ethr =  1.00E-06,  avg # of iterations = 15.7

     total cpu time spent up to now is     1083.1 secs

     total energy              =    -698.03254136 Ry
     Harris-Foulkes estimate   =    -712.36409660 Ry
     estimated scf accuracy    <       7.47422872 Ry

     iteration #  2     ecut=    40.00 Ry     beta= 0.60
     Davidson diagonalization with overlap
     ethr =  9.83E-03,  avg # of iterations =  5.5

     total cpu time spent up to now is     1124.3 secs

     total energy              =    -704.74043407 Ry
     Harris-Foulkes estimate   =    -714.67246756 Ry
     estimated scf accuracy    <      29.79357169 Ry

     iteration #  3     ecut=    40.00 Ry     beta= 0.60
     Davidson diagonalization with overlap
     ethr =  9.83E-03,  avg # of iterations =  3.1

     total cpu time spent up to now is     1156.1 secs

     total energy              =    -705.42208572 Ry
     Harris-Foulkes estimate   =    -707.46539547 Ry
     estimated scf accuracy    <      12.85633245 Ry

     iteration #  4     ecut=    40.00 Ry     beta= 0.60
     Davidson diagonalization with overlap
     ethr =  9.83E-03,  avg # of iterations =  1.9

     total cpu time spent up to now is     1178.7 secs

     total energy              =    -704.89241856 Ry
     Harris-Foulkes estimate   =    -706.16471579 Ry
     estimated scf accuracy    <       6.17189083 Ry

     iteration #  5     ecut=    40.00 Ry     beta= 0.60
     Davidson diagonalization with overlap
     ethr =  8.12E-03,  avg # of iterations =  1.4

     total cpu time spent up to now is     1200.2 secs

     total energy              =    -704.70170388 Ry
     Harris-Foulkes estimate   =    -705.06969855 Ry
     estimated scf accuracy    <       2.97889986 Ry

     iteration #  6     ecut=    40.00 Ry     beta= 0.60
     Davidson diagonalization with overlap
     ethr =  3.92E-03,  avg # of iterations =  4.2

     total cpu time spent up to now is     1227.9 secs

     total energy              =    -705.07622337 Ry
     Harris-Foulkes estimate   =    -704.96386837 Ry
     estimated scf accuracy    <       0.41148037 Ry

     iteration #  7     ecut=    40.00 Ry     beta= 0.60
     Davidson diagonalization with overlap
     ethr =  5.41E-04,  avg # of iterations =  4.5

     total cpu time spent up to now is     1261.3 secs

     total energy              =    -705.06931076 Ry
     Harris-Foulkes estimate   =    -705.17405375 Ry
     estimated scf accuracy    <       1.58934941 Ry

     iteration #  8     ecut=    40.00 Ry     beta= 0.60
     Davidson diagonalization with overlap
     ethr =  5.41E-04,  avg # of iterations =  1.0

     total cpu time spent up to now is     1283.5 secs

     total energy              =    -705.02488920 Ry
     Harris-Foulkes estimate   =    -705.07422296 Ry
     estimated scf accuracy    <       1.24338081 Ry

     iteration #  9     ecut=    40.00 Ry     beta= 0.60
     Davidson diagonalization with overlap
     ethr =  5.41E-04,  avg # of iterations =  1.2

     total cpu time spent up to now is     1307.0 secs

     total energy              =    -704.91298688 Ry
     Harris-Foulkes estimate   =    -705.03043660 Ry
     estimated scf accuracy    <       0.95426470 Ry

     iteration # 10     ecut=    40.00 Ry     beta= 0.60
     Davidson diagonalization with overlap
     ethr =  5.41E-04,  avg # of iterations =  3.3

     total cpu time spent up to now is     1331.4 secs

     total energy              =    -704.87339467 Ry
     Harris-Foulkes estimate   =    -704.93526433 Ry
     estimated scf accuracy    <       0.30113554 Ry

     iteration # 11     ecut=    40.00 Ry     beta= 0.60
     Davidson diagonalization with overlap
     ethr =  3.96E-04,  avg # of iterations =  4.5

     total cpu time spent up to now is     1369.3 secs

     total energy              =    -704.93370744 Ry
     Harris-Foulkes estimate   =    -704.94576866 Ry
     estimated scf accuracy    <       0.14658196 Ry

     iteration # 12     ecut=    40.00 Ry     beta= 0.60
     Davidson diagonalization with overlap
     ethr =  1.93E-04,  avg # of iterations =  1.0

     total cpu time spent up to now is     1391.3 secs

     total energy              =    -704.94474673 Ry
     Harris-Foulkes estimate   =    -704.93693708 Ry
     estimated scf accuracy    <       0.03637839 Ry

     iteration # 13     ecut=    40.00 Ry     beta= 0.60
     Davidson diagonalization with overlap
     ethr =  4.79E-05,  avg # of iterations =  1.3

     total cpu time spent up to now is     1421.0 secs

     total energy              =    -704.95220440 Ry
     Harris-Foulkes estimate   =    -704.94929876 Ry
     estimated scf accuracy    <       0.18459835 Ry

     iteration # 14     ecut=    40.00 Ry     beta= 0.60
     Davidson diagonalization with overlap
     ethr =  4.79E-05,  avg # of iterations =  1.1

     total cpu time spent up to now is     1443.0 secs

     total energy              =    -704.94639988 Ry
     Harris-Foulkes estimate   =    -704.95268393 Ry
     estimated scf accuracy    <       0.24173163 Ry

     iteration # 15     ecut=    40.00 Ry     beta= 0.60
     Davidson diagonalization with overlap
     ethr =  4.79E-05,  avg # of iterations =  1.0

     total cpu time spent up to now is     1465.1 secs

     total energy              =    -704.94389886 Ry
     Harris-Foulkes estimate   =    -704.94691935 Ry
     estimated scf accuracy    <       0.17183773 Ry

     iteration # 16     ecut=    40.00 Ry     beta= 0.60
     Davidson diagonalization with overlap
     ethr =  4.79E-05,  avg # of iterations =  1.0

     total cpu time spent up to now is     1488.4 secs

     total energy              =    -704.94378817 Ry
     Harris-Foulkes estimate   =    -704.94409051 Ry
     estimated scf accuracy    <       0.13393090 Ry

     iteration # 17     ecut=    40.00 Ry     beta= 0.60
     Davidson diagonalization with overlap
     ethr =  4.79E-05,  avg # of iterations =  1.0

     total cpu time spent up to now is     1507.6 secs

     total energy              =    -704.92687648 Ry
     Harris-Foulkes estimate   =    -704.94382297 Ry
     estimated scf accuracy    <       0.12965443 Ry

     iteration # 18     ecut=    40.00 Ry     beta= 0.60
     Davidson diagonalization with overlap
     ethr =  4.79E-05,  avg # of iterations =  4.5

     total cpu time spent up to now is     1534.9 secs

     total energy              =    -704.93606076 Ry
     Harris-Foulkes estimate   =    -704.93610036 Ry
     estimated scf accuracy    <       0.00099626 Ry

     iteration # 19     ecut=    40.00 Ry     beta= 0.60
     Davidson diagonalization with overlap
     ethr =  1.31E-06,  avg # of iterations =  6.9

     total cpu time spent up to now is     1574.7 secs

     total energy              =    -704.93627954 Ry
     Harris-Foulkes estimate   =    -704.93648662 Ry
     estimated scf accuracy    <       0.00233726 Ry

     iteration # 20     ecut=    40.00 Ry     beta= 0.60
     Davidson diagonalization with overlap
     ethr =  1.31E-06,  avg # of iterations =  1.0

     total cpu time spent up to now is     1594.6 secs

     total energy              =    -704.93619723 Ry
     Harris-Foulkes estimate   =    -704.93631044 Ry
     estimated scf accuracy    <       0.00097902 Ry

     iteration # 21     ecut=    40.00 Ry     beta= 0.60
     Davidson diagonalization with overlap
     ethr =  1.29E-06,  avg # of iterations =  3.1

     total cpu time spent up to now is     1621.1 secs

     total energy              =    -704.93626476 Ry
     Harris-Foulkes estimate   =    -704.93626229 Ry
     estimated scf accuracy    <       0.00003497 Ry

     iteration # 22     ecut=    40.00 Ry     beta= 0.60
     Davidson diagonalization with overlap
     ethr =  4.60E-08,  avg # of iterations =  4.0

     total cpu time spent up to now is     1655.4 secs

     total energy              =    -704.93626516 Ry
     Harris-Foulkes estimate   =    -704.93627159 Ry
     estimated scf accuracy    <       0.00004211 Ry

     iteration # 23     ecut=    40.00 Ry     beta= 0.60
     Davidson diagonalization with overlap
     ethr =  4.60E-08,  avg # of iterations =  1.1

     total cpu time spent up to now is     1678.2 secs

     total energy              =    -704.93626503 Ry
     Harris-Foulkes estimate   =    -704.93626639 Ry
     estimated scf accuracy    <       0.00001349 Ry

     iteration # 24     ecut=    40.00 Ry     beta= 0.60
     Davidson diagonalization with overlap
     ethr =  1.78E-08,  avg # of iterations =  4.0

     total cpu time spent up to now is     1704.2 secs

     total energy              =    -704.93626607 Ry
     Harris-Foulkes estimate   =    -704.93626643 Ry
     estimated scf accuracy    <       0.00000090 Ry

     iteration # 25     ecut=    40.00 Ry     beta= 0.60
     Davidson diagonalization with overlap
     ethr =  1.18E-09,  avg # of iterations =  4.5

     total cpu time spent up to now is     1738.8 secs

     total energy              =    -704.93626625 Ry
     Harris-Foulkes estimate   =    -704.93626631 Ry
     estimated scf accuracy    <       0.00000049 Ry

     iteration # 26     ecut=    40.00 Ry     beta= 0.60
     Davidson diagonalization with overlap
     ethr =  6.44E-10,  avg # of iterations =  1.0

     total cpu time spent up to now is     1757.7 secs

     total energy              =    -704.93626622 Ry
     Harris-Foulkes estimate   =    -704.93626627 Ry
     estimated scf accuracy    <       0.00000028 Ry

     iteration # 27     ecut=    40.00 Ry     beta= 0.60
     Davidson diagonalization with overlap
     ethr =  3.71E-10,  avg # of iterations =  1.6

     total cpu time spent up to now is     1778.2 secs

     total energy              =    -704.93626623 Ry
     Harris-Foulkes estimate   =    -704.93626624 Ry
     estimated scf accuracy    <       0.00000001 Ry

     iteration # 28     ecut=    40.00 Ry     beta= 0.60
     Davidson diagonalization with overlap
     ethr =  1.79E-11,  avg # of iterations =  5.0

     total cpu time spent up to now is     1810.3 secs

     total energy              =    -704.93626624 Ry
     Harris-Foulkes estimate   =    -704.93626624 Ry
     estimated scf accuracy    <       0.00000001 Ry

     iteration # 29     ecut=    40.00 Ry     beta= 0.60
     Davidson diagonalization with overlap
     ethr =  1.78E-11,  avg # of iterations =  2.2

     total cpu time spent up to now is     1833.0 secs

     total energy              =    -704.93626624 Ry
     Harris-Foulkes estimate   =    -704.93626624 Ry
     estimated scf accuracy    <          6.3E-10 Ry

     iteration # 30     ecut=    40.00 Ry     beta= 0.60
     Davidson diagonalization with overlap
     ethr =  8.28E-13,  avg # of iterations =  5.0

     total cpu time spent up to now is     1867.5 secs

     total energy              =    -704.93626624 Ry
     Harris-Foulkes estimate   =    -704.93626624 Ry
     estimated scf accuracy    <          5.1E-09 Ry

     iteration # 31     ecut=    40.00 Ry     beta= 0.60
     Davidson diagonalization with overlap
     ethr =  8.28E-13,  avg # of iterations =  3.2

     total cpu time spent up to now is     1904.9 secs

     total energy              =    -704.93626624 Ry
     Harris-Foulkes estimate   =    -704.93626624 Ry
     estimated scf accuracy    <          2.0E-09 Ry

     iteration # 32     ecut=    40.00 Ry     beta= 0.60
     Davidson diagonalization with overlap
     ethr =  8.28E-13,  avg # of iterations =  3.6

     total cpu time spent up to now is     1930.5 secs

     total energy              =    -704.93626624 Ry
     Harris-Foulkes estimate   =    -704.93626624 Ry
     estimated scf accuracy    <          2.1E-10 Ry

     iteration # 33     ecut=    40.00 Ry     beta= 0.60
     Davidson diagonalization with overlap
     ethr =  2.81E-13,  avg # of iterations =  3.4

     total cpu time spent up to now is     1954.0 secs

     End of self-consistent calculation

     Number of k-points >= 100: set verbosity='high' to print the bands.

     the Fermi energy is    15.7558 ev

!    total energy              =    -704.93626624 Ry
     Harris-Foulkes estimate   =    -704.93626624 Ry
     estimated scf accuracy    <          1.0E-11 Ry

     The total energy is the sum of the following terms:

     one-electron contribution =    -161.22978458 Ry
     hartree contribution      =     112.75418599 Ry
     xc contribution           =    -102.50181148 Ry
     ewald contribution        =    -553.95650675 Ry
     smearing contrib. (-TS)   =      -0.00234942 Ry

     convergence has been achieved in  33 iterations

     Forces acting on atoms (cartesian axes, Ry/au):

     atom    1 type  2   force =     0.00000000    0.00000000   -0.00027021
     atom    2 type  1   force =     0.00203800   -0.00117664    0.00000000
     atom    3 type  2   force =     0.00000000    0.00000000    0.00027021
     atom    4 type  1   force =     0.00000000    0.00235328    0.00000000
     atom    5 type  1   force =     0.00000000    0.00000000   -0.00000000
     atom    6 type  1   force =    -0.00203800   -0.00117664    0.00000000

     Total force =     0.004094     Total SCF correction =     0.000002


     Computing stress (Cartesian axis) and pressure

          total   stress  (Ry/bohr**3)                   (kbar)     P=  -48.83
  -0.00043566   0.00000000   0.00000000        -64.09      0.00      0.00
   0.00000000  -0.00043566   0.00000000          0.00    -64.09      0.00
  -0.00000000   0.00000000  -0.00012459         -0.00      0.00    -18.33


     number of scf cycles    =   2
     number of bfgs steps    =   1

     enthalpy old            =    -704.9067571013 Ry
     enthalpy new            =    -704.9362662428 Ry

     CASE: enthalpy_new < enthalpy_old

     new trust radius        =       0.1042731017 bohr
     new conv_thr            =            1.0E-10 Ry

     new unit-cell volume =    727.36104 a.u.^3 (   107.78378 Ang^3 )
     density =      7.20024 g/cm^3

CELL_PARAMETERS (alat=  1.88972599)
   2.919349174   0.000000000   4.867764098
  -1.459674587   2.528230736   4.867764098
  -1.459674587  -2.528230736   4.867764098

ATOMIC_POSITIONS (angstrom)
Ti       0.000000000   0.000000000   9.734774422
Nb       0.002087710  -1.686692497   7.301646147
Ti       0.000000000   0.000000000  14.604046069
Nb       1.459676047   0.845151730   7.301646147
Nb       0.000000000   0.000000000   4.867764098
Nb      -1.461759376   0.841538239   7.301646147


     NEW-OLD atomic charge density approx. for the potential

     Check: negative/imaginary core charge=   -0.000001    0.000000
     extrapolated charge   72.68500, renormalised to   76.00000

     total cpu time spent up to now is     1971.1 secs

     Self-consistent Calculation

     iteration #  1     ecut=    40.00 Ry     beta= 0.60
     Davidson diagonalization with overlap
     c_bands:  2 eigenvalues not converged
     c_bands:  1 eigenvalues not converged
     c_bands:  1 eigenvalues not converged
     c_bands:  1 eigenvalues not converged
     c_bands:  1 eigenvalues not converged
     c_bands:  2 eigenvalues not converged
     c_bands:  1 eigenvalues not converged
     c_bands:  1 eigenvalues not converged
     c_bands:  1 eigenvalues not converged
     c_bands:  2 eigenvalues not converged
     c_bands:  2 eigenvalues not converged
     c_bands:  1 eigenvalues not converged
     c_bands:  1 eigenvalues not converged
     c_bands:  2 eigenvalues not converged
     c_bands:  1 eigenvalues not converged
     c_bands:  1 eigenvalues not converged
     c_bands:  1 eigenvalues not converged
     c_bands:  1 eigenvalues not converged
     c_bands:  2 eigenvalues not converged
     c_bands:  1 eigenvalues not converged
     c_bands:  1 eigenvalues not converged
     c_bands:  1 eigenvalues not converged
     c_bands:  2 eigenvalues not converged
     c_bands:  1 eigenvalues not converged
     c_bands:  1 eigenvalues not converged
     c_bands:  1 eigenvalues not converged
     c_bands:  1 eigenvalues not converged
     c_bands:  1 eigenvalues not converged
     c_bands:  2 eigenvalues not converged
     c_bands:  1 eigenvalues not converged
     c_bands:  1 eigenvalues not converged
     c_bands:  1 eigenvalues not converged
     c_bands:  1 eigenvalues not converged
     c_bands:  2 eigenvalues not converged
     c_bands:  1 eigenvalues not converged
     c_bands:  2 eigenvalues not converged
     c_bands:  1 eigenvalues not converged
     c_bands:  2 eigenvalues not converged
     c_bands:  2 eigenvalues not converged
     c_bands:  1 eigenvalues not converged
     c_bands:  1 eigenvalues not converged
     c_bands:  1 eigenvalues not converged
     c_bands:  1 eigenvalues not converged
     c_bands:  1 eigenvalues not converged
     c_bands:  1 eigenvalues not converged
     c_bands:  1 eigenvalues not converged
     c_bands:  1 eigenvalues not converged
     c_bands:  1 eigenvalues not converged
     c_bands:  1 eigenvalues not converged
     c_bands:  1 eigenvalues not converged
     c_bands:  1 eigenvalues not converged
     c_bands:  1 eigenvalues not converged
     ethr =  1.00E-06,  avg # of iterations = 15.0

     total cpu time spent up to now is     2058.0 secs

     total energy              =    -702.90002381 Ry
     Harris-Foulkes estimate   =    -709.72801085 Ry
     estimated scf accuracy    <       2.10437562 Ry

     iteration #  2     ecut=    40.00 Ry     beta= 0.60
     Davidson diagonalization with overlap
     ethr =  2.77E-03,  avg # of iterations =  5.8

     total cpu time spent up to now is     2105.6 secs

     total energy              =    -704.59861484 Ry
     Harris-Foulkes estimate   =    -708.41377954 Ry
     estimated scf accuracy    <      13.50226708 Ry

     iteration #  3     ecut=    40.00 Ry     beta= 0.60
     Davidson diagonalization with overlap
     ethr =  2.77E-03,  avg # of iterations =  4.4

     total cpu time spent up to now is     2142.6 secs

     total energy              =    -704.96200925 Ry
     Harris-Foulkes estimate   =    -705.57630606 Ry
     estimated scf accuracy    <       3.76107061 Ry

     iteration #  4     ecut=    40.00 Ry     beta= 0.60
     Davidson diagonalization with overlap
     ethr =  2.77E-03,  avg # of iterations =  2.6

     total cpu time spent up to now is     2173.1 secs

     total energy              =    -704.91601933 Ry
     Harris-Foulkes estimate   =    -705.24037937 Ry
     estimated scf accuracy    <       2.05804983 Ry

     iteration #  5     ecut=    40.00 Ry     beta= 0.60
     Davidson diagonalization with overlap
     ethr =  2.71E-03,  avg # of iterations =  1.5

     total cpu time spent up to now is     2196.1 secs

     total energy              =    -704.92498008 Ry
     Harris-Foulkes estimate   =    -704.98625326 Ry
     estimated scf accuracy    <       0.72778765 Ry

     iteration #  6     ecut=    40.00 Ry     beta= 0.60
     Davidson diagonalization with overlap
     ethr =  9.58E-04,  avg # of iterations =  3.5

     total cpu time spent up to now is     2227.2 secs

     total energy              =    -704.95522491 Ry
     Harris-Foulkes estimate   =    -704.95828704 Ry
     estimated scf accuracy    <       0.24152691 Ry

     iteration #  7     ecut=    40.00 Ry     beta= 0.60
     Davidson diagonalization with overlap
     ethr =  3.18E-04,  avg # of iterations =  4.1

     total cpu time spent up to now is     2254.4 secs

     total energy              =    -704.93406431 Ry
     Harris-Foulkes estimate   =    -704.96361547 Ry
     estimated scf accuracy    <       0.22027849 Ry

     iteration #  8     ecut=    40.00 Ry     beta= 0.60
     Davidson diagonalization with overlap
     ethr =  2.90E-04,  avg # of iterations =  2.9

     total cpu time spent up to now is     2279.4 secs

     total energy              =    -704.93651001 Ry
     Harris-Foulkes estimate   =    -704.94261155 Ry
     estimated scf accuracy    <       0.05420784 Ry

     iteration #  9     ecut=    40.00 Ry     beta= 0.60
     Davidson diagonalization with overlap
     ethr =  7.13E-05,  avg # of iterations =  5.7

     total cpu time spent up to now is     2319.7 secs

     total energy              =    -704.94513274 Ry
     Harris-Foulkes estimate   =    -704.94315743 Ry
     estimated scf accuracy    <       0.00293488 Ry

     iteration # 10     ecut=    40.00 Ry     beta= 0.60
     Davidson diagonalization with overlap
     ethr =  3.86E-06,  avg # of iterations =  5.7

     total cpu time spent up to now is     2360.2 secs

     total energy              =    -704.93927184 Ry
     Harris-Foulkes estimate   =    -704.94662197 Ry
     estimated scf accuracy    <       0.03237794 Ry

     iteration # 11     ecut=    40.00 Ry     beta= 0.60
     Davidson diagonalization with overlap
     ethr =  3.86E-06,  avg # of iterations =  5.6

     total cpu time spent up to now is     2404.3 secs

     total energy              =    -704.94257307 Ry
     Harris-Foulkes estimate   =    -704.94259535 Ry
     estimated scf accuracy    <       0.00032529 Ry

     iteration # 12     ecut=    40.00 Ry     beta= 0.60
     Davidson diagonalization with overlap
     ethr =  4.28E-07,  avg # of iterations =  1.0

     total cpu time spent up to now is     2429.7 secs

     total energy              =    -704.94256062 Ry
     Harris-Foulkes estimate   =    -704.94257858 Ry
     estimated scf accuracy    <       0.00013828 Ry

     iteration # 13     ecut=    40.00 Ry     beta= 0.60
     Davidson diagonalization with overlap
     ethr =  1.82E-07,  avg # of iterations =  3.2

     total cpu time spent up to now is     2454.6 secs

     total energy              =    -704.94257101 Ry
     Harris-Foulkes estimate   =    -704.94257124 Ry
     estimated scf accuracy    <       0.00000081 Ry

     iteration # 14     ecut=    40.00 Ry     beta= 0.60
     Davidson diagonalization with overlap
     ethr =  1.06E-09,  avg # of iterations =  5.6

     total cpu time spent up to now is     2496.3 secs

     total energy              =    -704.94257214 Ry
     Harris-Foulkes estimate   =    -704.94257284 Ry
     estimated scf accuracy    <       0.00000544 Ry

     iteration # 15     ecut=    40.00 Ry     beta= 0.60
     Davidson diagonalization with overlap
     ethr =  1.06E-09,  avg # of iterations =  4.2

     total cpu time spent up to now is     2528.0 secs

     total energy              =    -704.94257243 Ry
     Harris-Foulkes estimate   =    -704.94257243 Ry
     estimated scf accuracy    <       0.00000008 Ry

     iteration # 16     ecut=    40.00 Ry     beta= 0.60
     Davidson diagonalization with overlap
     ethr =  1.04E-10,  avg # of iterations =  2.5

     total cpu time spent up to now is     2556.7 secs

     total energy              =    -704.94257243 Ry
     Harris-Foulkes estimate   =    -704.94257244 Ry
     estimated scf accuracy    <       0.00000017 Ry

     iteration # 17     ecut=    40.00 Ry     beta= 0.60
     Davidson diagonalization with overlap
     ethr =  1.04E-10,  avg # of iterations =  1.0

     total cpu time spent up to now is     2592.2 secs

     total energy              =    -704.94257242 Ry
     Harris-Foulkes estimate   =    -704.94257243 Ry
     estimated scf accuracy    <       0.00000008 Ry

     iteration # 18     ecut=    40.00 Ry     beta= 0.60
     Davidson diagonalization with overlap
     ethr =  1.04E-10,  avg # of iterations =  1.4

     total cpu time spent up to now is     2615.8 secs

     total energy              =    -704.94257242 Ry
     Harris-Foulkes estimate   =    -704.94257243 Ry
     estimated scf accuracy    <       0.00000003 Ry

     iteration # 19     ecut=    40.00 Ry     beta= 0.60
     Davidson diagonalization with overlap
     ethr =  3.70E-11,  avg # of iterations =  4.0

     total cpu time spent up to now is     2642.8 secs

     total energy              =    -704.94257242 Ry
     Harris-Foulkes estimate   =    -704.94257242 Ry
     estimated scf accuracy    <          3.2E-09 Ry

     iteration # 20     ecut=    40.00 Ry     beta= 0.60
     Davidson diagonalization with overlap
     ethr =  4.18E-12,  avg # of iterations =  2.5

     total cpu time spent up to now is     2666.4 secs

     total energy              =    -704.94257242 Ry
     Harris-Foulkes estimate   =    -704.94257242 Ry
     estimated scf accuracy    <          2.8E-10 Ry

     iteration # 21     ecut=    40.00 Ry     beta= 0.60
     Davidson diagonalization with overlap
     ethr =  3.63E-13,  avg # of iterations =  4.6

     total cpu time spent up to now is     2706.6 secs

     total energy              =    -704.94257242 Ry
     Harris-Foulkes estimate   =    -704.94257242 Ry
     estimated scf accuracy    <          2.0E-10 Ry

     iteration # 22     ecut=    40.00 Ry     beta= 0.60
     Davidson diagonalization with overlap
     ethr =  2.66E-13,  avg # of iterations =  1.0

     total cpu time spent up to now is     2730.0 secs

     End of self-consistent calculation

     Number of k-points >= 100: set verbosity='high' to print the bands.

     the Fermi energy is    16.5687 ev

!    total energy              =    -704.94257242 Ry
     Harris-Foulkes estimate   =    -704.94257242 Ry
     estimated scf accuracy    <          1.5E-11 Ry

     The total energy is the sum of the following terms:

     one-electron contribution =    -149.56173926 Ry
     hartree contribution      =     109.46428028 Ry
     xc contribution           =    -102.76332225 Ry
     ewald contribution        =    -562.08010793 Ry
     smearing contrib. (-TS)   =      -0.00168326 Ry

     convergence has been achieved in  22 iterations

     Forces acting on atoms (cartesian axes, Ry/au):

     atom    1 type  2   force =     0.00000000   -0.00000000    0.00038582
     atom    2 type  1   force =     0.00249494   -0.00144045   -0.00000000
     atom    3 type  2   force =     0.00000000    0.00000000   -0.00038582
     atom    4 type  1   force =     0.00000000    0.00288091    0.00000000
     atom    5 type  1   force =     0.00000000    0.00000000   -0.00000000
     atom    6 type  1   force =    -0.00249494   -0.00144045    0.00000000

     Total force =     0.005020     Total SCF correction =     0.000002


     Computing stress (Cartesian axis) and pressure

          total   stress  (Ry/bohr**3)                   (kbar)     P=   12.29
  -0.00001178   0.00000000  -0.00000000         -1.73      0.00     -0.00
   0.00000000  -0.00001178   0.00000000          0.00     -1.73      0.00
  -0.00000000   0.00000000   0.00027419         -0.00      0.00     40.33


     number of scf cycles    =   3
     number of bfgs steps    =   2

     enthalpy old            =    -704.9362662428 Ry
     enthalpy new            =    -704.9425724248 Ry

     CASE: enthalpy_new < enthalpy_old

     new trust radius        =       0.0297391601 bohr
     new conv_thr            =            1.0E-10 Ry

     new unit-cell volume =    729.39105 a.u.^3 (   108.08460 Ang^3 )
     density =      7.18020 g/cm^3

CELL_PARAMETERS (alat=  1.88972599)
   2.915394275   0.000000000   4.894602287
  -1.457697137   2.524805694   4.894602287
  -1.457697137  -2.524805694   4.894602287

ATOMIC_POSITIONS (angstrom)
Ti       0.000000000   0.000000000   9.788612865
Nb       0.003277032  -1.685095791   7.341903431
Ti       0.000000000   0.000000000  14.684398572
Nb       1.457698596   0.845383363   7.341903431
Nb       0.000000000   0.000000000   4.894602287
Nb      -1.460971253   0.839709903   7.341903431


     NEW-OLD atomic charge density approx. for the potential

     Check: negative/imaginary core charge=   -0.000001    0.000000
     extrapolated charge   76.20592, renormalised to   76.00000

     total cpu time spent up to now is     2744.5 secs

     Self-consistent Calculation

     iteration #  1     ecut=    40.00 Ry     beta= 0.60
     Davidson diagonalization with overlap
     c_bands:  1 eigenvalues not converged
     ethr =  1.00E-06,  avg # of iterations =  5.2

     total cpu time spent up to now is     2792.4 secs

     total energy              =    -704.94080407 Ry
     Harris-Foulkes estimate   =    -704.65502263 Ry
     estimated scf accuracy    <       0.00237474 Ry

     iteration #  2     ecut=    40.00 Ry     beta= 0.60
     Davidson diagonalization with overlap
     c_bands:  1 eigenvalues not converged
     c_bands:  1 eigenvalues not converged
     c_bands:  1 eigenvalues not converged
     c_bands:  1 eigenvalues not converged
     c_bands:  1 eigenvalues not converged
     ethr =  3.12E-06,  avg # of iterations =  7.6

     total cpu time spent up to now is     2838.7 secs

     total energy              =    -704.93927850 Ry
     Harris-Foulkes estimate   =    -704.94949442 Ry
     estimated scf accuracy    <       0.07507521 Ry

     iteration #  3     ecut=    40.00 Ry     beta= 0.60
     Davidson diagonalization with overlap
     ethr =  3.12E-06,  avg # of iterations =  5.3

     total cpu time spent up to now is     2879.4 secs

     total energy              =    -704.94331796 Ry
     Harris-Foulkes estimate   =    -704.94429919 Ry
     estimated scf accuracy    <       0.00305128 Ry

     iteration #  4     ecut=    40.00 Ry     beta= 0.60
     Davidson diagonalization with overlap
     ethr =  3.12E-06,  avg # of iterations =  3.7

     total cpu time spent up to now is     2908.0 secs

     total energy              =    -704.94359777 Ry
     Harris-Foulkes estimate   =    -704.94404108 Ry
     estimated scf accuracy    <       0.00371407 Ry

     iteration #  5     ecut=    40.00 Ry     beta= 0.60
     Davidson diagonalization with overlap
     ethr =  3.12E-06,  avg # of iterations =  1.3

     total cpu time spent up to now is     2927.5 secs

     total energy              =    -704.94357449 Ry
     Harris-Foulkes estimate   =    -704.94374266 Ry
     estimated scf accuracy    <       0.00106148 Ry

     iteration #  6     ecut=    40.00 Ry     beta= 0.60
     Davidson diagonalization with overlap
     ethr =  1.40E-06,  avg # of iterations =  3.0

     total cpu time spent up to now is     2953.1 secs

     total energy              =    -704.94359648 Ry
     Harris-Foulkes estimate   =    -704.94364107 Ry
     estimated scf accuracy    <       0.00022719 Ry

     iteration #  7     ecut=    40.00 Ry     beta= 0.60
     Davidson diagonalization with overlap
     ethr =  2.99E-07,  avg # of iterations =  3.5

     total cpu time spent up to now is     2981.8 secs

     total energy              =    -704.94362245 Ry
     Harris-Foulkes estimate   =    -704.94362587 Ry
     estimated scf accuracy    <       0.00004222 Ry

     iteration #  8     ecut=    40.00 Ry     beta= 0.60
     Davidson diagonalization with overlap
     ethr =  5.56E-08,  avg # of iterations =  2.9

     total cpu time spent up to now is     3007.0 secs

     total energy              =    -704.94362114 Ry
     Harris-Foulkes estimate   =    -704.94362458 Ry
     estimated scf accuracy    <       0.00001922 Ry

     iteration #  9     ecut=    40.00 Ry     beta= 0.60
     Davidson diagonalization with overlap
     ethr =  2.53E-08,  avg # of iterations =  3.2

     total cpu time spent up to now is     3034.3 secs

     total energy              =    -704.94362293 Ry
     Harris-Foulkes estimate   =    -704.94362303 Ry
     estimated scf accuracy    <       0.00000044 Ry

     iteration # 10     ecut=    40.00 Ry     beta= 0.60
     Davidson diagonalization with overlap
     ethr =  5.73E-10,  avg # of iterations =  5.0

     total cpu time spent up to now is     3073.6 secs

     total energy              =    -704.94362320 Ry
     Harris-Foulkes estimate   =    -704.94362325 Ry
     estimated scf accuracy    <       0.00000026 Ry

     iteration # 11     ecut=    40.00 Ry     beta= 0.60
     Davidson diagonalization with overlap
     ethr =  3.40E-10,  avg # of iterations =  3.0

     total cpu time spent up to now is     3096.1 secs

     total energy              =    -704.94362322 Ry
     Harris-Foulkes estimate   =    -704.94362322 Ry
     estimated scf accuracy    <       0.00000002 Ry

     iteration # 12     ecut=    40.00 Ry     beta= 0.60
     Davidson diagonalization with overlap
     ethr =  3.25E-11,  avg # of iterations =  4.3

     total cpu time spent up to now is     3124.4 secs

     total energy              =    -704.94362322 Ry
     Harris-Foulkes estimate   =    -704.94362323 Ry
     estimated scf accuracy    <       0.00000002 Ry

     iteration # 13     ecut=    40.00 Ry     beta= 0.60
     Davidson diagonalization with overlap
     ethr =  2.74E-11,  avg # of iterations =  2.2

     total cpu time spent up to now is     3145.9 secs

     total energy              =    -704.94362322 Ry
     Harris-Foulkes estimate   =    -704.94362322 Ry
     estimated scf accuracy    <          9.7E-10 Ry

     iteration # 14     ecut=    40.00 Ry     beta= 0.60
     Davidson diagonalization with overlap
     ethr =  1.28E-12,  avg # of iterations =  4.4

     total cpu time spent up to now is     3187.5 secs

     total energy              =    -704.94362322 Ry
     Harris-Foulkes estimate   =    -704.94362322 Ry
     estimated scf accuracy    <          1.2E-10 Ry

     iteration # 15     ecut=    40.00 Ry     beta= 0.60
     Davidson diagonalization with overlap
     ethr =  1.53E-13,  avg # of iterations =  2.2

     total cpu time spent up to now is     3209.5 secs

     End of self-consistent calculation

     Number of k-points >= 100: set verbosity='high' to print the bands.

     the Fermi energy is    16.5110 ev

!    total energy              =    -704.94362322 Ry
     Harris-Foulkes estimate   =    -704.94362322 Ry
     estimated scf accuracy    <          8.4E-12 Ry

     The total energy is the sum of the following terms:

     one-electron contribution =    -150.36676442 Ry
     hartree contribution      =     109.70496800 Ry
     xc contribution           =    -102.74852967 Ry
     ewald contribution        =    -561.53157125 Ry
     smearing contrib. (-TS)   =      -0.00172589 Ry

     convergence has been achieved in  15 iterations

     Forces acting on atoms (cartesian axes, Ry/au):

     atom    1 type  2   force =     0.00000000    0.00000000    0.00037658
     atom    2 type  1   force =     0.00192965   -0.00111408   -0.00000000
     atom    3 type  2   force =    -0.00000000    0.00000000   -0.00037658
     atom    4 type  1   force =    -0.00000000    0.00222817    0.00000000
     atom    5 type  1   force =    -0.00000000   -0.00000000    0.00000000
     atom    6 type  1   force =    -0.00192965   -0.00111408   -0.00000000

     Total force =     0.003896     Total SCF correction =     0.000001


     Computing stress (Cartesian axis) and pressure

          total   stress  (Ry/bohr**3)                   (kbar)     P=    7.70
  -0.00003111  -0.00000000  -0.00000000         -4.58     -0.00     -0.00
   0.00000000  -0.00003111   0.00000000          0.00     -4.58      0.00
  -0.00000000  -0.00000000   0.00021931         -0.00     -0.00     32.26


     number of scf cycles    =   4
     number of bfgs steps    =   3

     enthalpy old            =    -704.9425724248 Ry
     enthalpy new            =    -704.9436232247 Ry

     CASE: enthalpy_new < enthalpy_old


     WARNING: bfgs curvature condition failed, Theta= 0.958
     new trust radius        =       0.0444260059 bohr
     new conv_thr            =            1.0E-10 Ry

     new unit-cell volume =    730.23834 a.u.^3 (   108.21016 Ang^3 )
     density =      7.17187 g/cm^3

CELL_PARAMETERS (alat=  1.88972599)
   2.905164318   0.000000000   4.934859572
  -1.452582159   2.515946292   4.934859572
  -1.452582159  -2.515946292   4.934859572

ATOMIC_POSITIONS (angstrom)
Ti       0.000000000   0.000000000   9.869425467
Nb       0.005098364  -1.680241069   7.402289357
Ti       0.000000000   0.000000000  14.804872392
Nb       1.452583612   0.844533331   7.402289357
Nb       0.000000000   0.000000000   4.934859572
Nb      -1.457677617   0.835705222   7.402289357


     NEW-OLD atomic charge density approx. for the potential

     Check: negative/imaginary core charge=   -0.000001    0.000000
     extrapolated charge   76.08585, renormalised to   76.00000

     total cpu time spent up to now is     3237.7 secs

     Self-consistent Calculation

     iteration #  1     ecut=    40.00 Ry     beta= 0.60
     Davidson diagonalization with overlap
     c_bands:  1 eigenvalues not converged
     c_bands:  1 eigenvalues not converged
     c_bands:  1 eigenvalues not converged
     c_bands:  1 eigenvalues not converged
     c_bands:  1 eigenvalues not converged
     ethr =  1.00E-06,  avg # of iterations =  6.2

     total cpu time spent up to now is     3308.7 secs

     total energy              =    -704.94442634 Ry
     Harris-Foulkes estimate   =    -704.82420313 Ry
     estimated scf accuracy    <       0.00058125 Ry

     iteration #  2     ecut=    40.00 Ry     beta= 0.60
     Davidson diagonalization with overlap
     ethr =  7.65E-07,  avg # of iterations =  4.8

     total cpu time spent up to now is     3359.5 secs

     total energy              =    -704.94420428 Ry
     Harris-Foulkes estimate   =    -704.94577173 Ry
     estimated scf accuracy    <       0.00772652 Ry

     iteration #  3     ecut=    40.00 Ry     beta= 0.60
     Davidson diagonalization with overlap
     ethr =  7.65E-07,  avg # of iterations =  4.8

     total cpu time spent up to now is     3393.3 secs

     total energy              =    -704.94490378 Ry
     Harris-Foulkes estimate   =    -704.94503509 Ry
     estimated scf accuracy    <       0.00046936 Ry

     iteration #  4     ecut=    40.00 Ry     beta= 0.60
     Davidson diagonalization with overlap
     ethr =  6.18E-07,  avg # of iterations =  3.5

     total cpu time spent up to now is     3419.4 secs

     total energy              =    -704.94489630 Ry
     Harris-Foulkes estimate   =    -704.94497958 Ry
     estimated scf accuracy    <       0.00035907 Ry

     iteration #  5     ecut=    40.00 Ry     beta= 0.60
     Davidson diagonalization with overlap
     ethr =  4.72E-07,  avg # of iterations =  3.4

     total cpu time spent up to now is     3442.0 secs

     total energy              =    -704.94492315 Ry
     Harris-Foulkes estimate   =    -704.94495895 Ry
     estimated scf accuracy    <       0.00015277 Ry

     iteration #  6     ecut=    40.00 Ry     beta= 0.60
     Davidson diagonalization with overlap
     ethr =  2.01E-07,  avg # of iterations =  3.0

     total cpu time spent up to now is     3465.1 secs

     total energy              =    -704.94493962 Ry
     Harris-Foulkes estimate   =    -704.94494065 Ry
     estimated scf accuracy    <       0.00000595 Ry

     iteration #  7     ecut=    40.00 Ry     beta= 0.60
     Davidson diagonalization with overlap
     ethr =  7.82E-09,  avg # of iterations =  4.6

     total cpu time spent up to now is     3498.0 secs

     total energy              =    -704.94494116 Ry
     Harris-Foulkes estimate   =    -704.94494171 Ry
     estimated scf accuracy    <       0.00000250 Ry

     iteration #  8     ecut=    40.00 Ry     beta= 0.60
     Davidson diagonalization with overlap
     ethr =  3.29E-09,  avg # of iterations =  2.3

     total cpu time spent up to now is     3520.9 secs

     total energy              =    -704.94494132 Ry
     Harris-Foulkes estimate   =    -704.94494136 Ry
     estimated scf accuracy    <       0.00000024 Ry

     iteration #  9     ecut=    40.00 Ry     beta= 0.60
     Davidson diagonalization with overlap
     ethr =  3.14E-10,  avg # of iterations =  4.3

     total cpu time spent up to now is     3560.8 secs

     total energy              =    -704.94494139 Ry
     Harris-Foulkes estimate   =    -704.94494141 Ry
     estimated scf accuracy    <       0.00000016 Ry

     iteration # 10     ecut=    40.00 Ry     beta= 0.60
     Davidson diagonalization with overlap
     ethr =  2.06E-10,  avg # of iterations =  1.0

     total cpu time spent up to now is     3582.5 secs

     total energy              =    -704.94494139 Ry
     Harris-Foulkes estimate   =    -704.94494140 Ry
     estimated scf accuracy    <       0.00000004 Ry

     iteration # 11     ecut=    40.00 Ry     beta= 0.60
     Davidson diagonalization with overlap
     ethr =  4.92E-11,  avg # of iterations =  3.6

     total cpu time spent up to now is     3615.5 secs

     total energy              =    -704.94494140 Ry
     Harris-Foulkes estimate   =    -704.94494140 Ry
     estimated scf accuracy    <          6.7E-09 Ry

     iteration # 12     ecut=    40.00 Ry     beta= 0.60
     Davidson diagonalization with overlap
     ethr =  8.81E-12,  avg # of iterations =  1.3

     total cpu time spent up to now is     3637.5 secs

     total energy              =    -704.94494140 Ry
     Harris-Foulkes estimate   =    -704.94494140 Ry
     estimated scf accuracy    <          1.4E-09 Ry

     iteration # 13     ecut=    40.00 Ry     beta= 0.60
     Davidson diagonalization with overlap
     ethr =  1.80E-12,  avg # of iterations =  3.9

     total cpu time spent up to now is     3665.3 secs

     total energy              =    -704.94494140 Ry
     Harris-Foulkes estimate   =    -704.94494140 Ry
     estimated scf accuracy    <          2.9E-10 Ry

     iteration # 14     ecut=    40.00 Ry     beta= 0.60
     Davidson diagonalization with overlap
     ethr =  3.78E-13,  avg # of iterations =  2.0

     total cpu time spent up to now is     3685.8 secs

     End of self-consistent calculation

     Number of k-points >= 100: set verbosity='high' to print the bands.

     the Fermi energy is    16.4810 ev

!    total energy              =    -704.94494140 Ry
     Harris-Foulkes estimate   =    -704.94494140 Ry
     estimated scf accuracy    <          1.8E-11 Ry

     The total energy is the sum of the following terms:

     one-electron contribution =    -150.81295823 Ry
     hartree contribution      =     109.86497015 Ry
     xc contribution           =    -102.74615587 Ry
     ewald contribution        =    -561.24902749 Ry
     smearing contrib. (-TS)   =      -0.00176997 Ry

     convergence has been achieved in  14 iterations

     Forces acting on atoms (cartesian axes, Ry/au):

     atom    1 type  2   force =     0.00000000    0.00000000    0.00038520
     atom    2 type  1   force =     0.00107138   -0.00061856    0.00000000
     atom    3 type  2   force =    -0.00000000    0.00000000   -0.00038520
     atom    4 type  1   force =     0.00000000    0.00123713    0.00000000
     atom    5 type  1   force =     0.00000000    0.00000000    0.00000000
     atom    6 type  1   force =    -0.00107138   -0.00061856    0.00000000

     Total force =     0.002211     Total SCF correction =     0.000001


     Computing stress (Cartesian axis) and pressure

          total   stress  (Ry/bohr**3)                   (kbar)     P=    5.44
  -0.00002684  -0.00000000   0.00000000         -3.95     -0.00      0.00
   0.00000000  -0.00002684   0.00000000          0.00     -3.95      0.00
   0.00000000  -0.00000000   0.00016460          0.00     -0.00     24.21


     number of scf cycles    =   5
     number of bfgs steps    =   4

     enthalpy old            =    -704.9436232247 Ry
     enthalpy new            =    -704.9449413978 Ry

     CASE: enthalpy_new < enthalpy_old

     new trust radius        =       0.0661337636 bohr
     new conv_thr            =            1.0E-10 Ry

     new unit-cell volume =    730.99237 a.u.^3 (   108.32189 Ang^3 )
     density =      7.16447 g/cm^3

CELL_PARAMETERS (alat=  1.88972599)
   2.889041564   0.000000000   4.995245498
  -1.444520782   2.501983579   4.995245498
  -1.444520782  -2.501983579   4.995245498

ATOMIC_POSITIONS (angstrom)
Ti       0.000000000   0.000000000   9.990762841
Nb       0.007468518  -1.672301002   7.492868247
Ti       0.000000000   0.000000000  14.985464648
Nb       1.444522227   0.842615924   7.492868247
Nb       0.000000000   0.000000000   4.995245498
Nb      -1.451986410   0.829682576   7.492868247


     NEW-OLD atomic charge density approx. for the potential

     Check: negative/imaginary core charge=   -0.000001    0.000000
     extrapolated charge   76.07632, renormalised to   76.00000

     total cpu time spent up to now is     3698.1 secs

     Self-consistent Calculation

     iteration #  1     ecut=    40.00 Ry     beta= 0.60
     Davidson diagonalization with overlap
     c_bands:  1 eigenvalues not converged
     c_bands:  1 eigenvalues not converged
     c_bands:  1 eigenvalues not converged
     c_bands:  1 eigenvalues not converged
     c_bands:  1 eigenvalues not converged
     ethr =  1.00E-06,  avg # of iterations =  7.8

     total cpu time spent up to now is     3749.4 secs

     total energy              =    -704.94539110 Ry
     Harris-Foulkes estimate   =    -704.83850889 Ry
     estimated scf accuracy    <       0.00124905 Ry

     iteration #  2     ecut=    40.00 Ry     beta= 0.60
     Davidson diagonalization with overlap
     ethr =  1.64E-06,  avg # of iterations =  5.2

     total cpu time spent up to now is     3788.8 secs

     total energy              =    -704.94361619 Ry
     Harris-Foulkes estimate   =    -704.94874803 Ry
     estimated scf accuracy    <       0.03108412 Ry

     iteration #  3     ecut=    40.00 Ry     beta= 0.60
     Davidson diagonalization with overlap
     ethr =  1.64E-06,  avg # of iterations =  5.5

     total cpu time spent up to now is     3825.2 secs

     total energy              =    -704.94606756 Ry
     Harris-Foulkes estimate   =    -704.94643149 Ry
     estimated scf accuracy    <       0.00227614 Ry

     iteration #  4     ecut=    40.00 Ry     beta= 0.60
     Davidson diagonalization with overlap
     ethr =  1.64E-06,  avg # of iterations =  3.6

     total cpu time spent up to now is     3849.6 secs

     total energy              =    -704.94617348 Ry
     Harris-Foulkes estimate   =    -704.94625345 Ry
     estimated scf accuracy    <       0.00026137 Ry

     iteration #  5     ecut=    40.00 Ry     beta= 0.60
     Davidson diagonalization with overlap
     ethr =  3.44E-07,  avg # of iterations =  3.8

     total cpu time spent up to now is     3876.1 secs

     total energy              =    -704.94622598 Ry
     Harris-Foulkes estimate   =    -704.94623283 Ry
     estimated scf accuracy    <       0.00003218 Ry

     iteration #  6     ecut=    40.00 Ry     beta= 0.60
     Davidson diagonalization with overlap
     ethr =  4.23E-08,  avg # of iterations =  3.2

     total cpu time spent up to now is     3901.6 secs

     total energy              =    -704.94622965 Ry
     Harris-Foulkes estimate   =    -704.94623003 Ry
     estimated scf accuracy    <       0.00000168 Ry

     iteration #  7     ecut=    40.00 Ry     beta= 0.60
     Davidson diagonalization with overlap
     ethr =  2.21E-09,  avg # of iterations =  4.9

     total cpu time spent up to now is     3935.3 secs

     total energy              =    -704.94623036 Ry
     Harris-Foulkes estimate   =    -704.94623054 Ry
     estimated scf accuracy    <       0.00000138 Ry

     iteration #  8     ecut=    40.00 Ry     beta= 0.60
     Davidson diagonalization with overlap
     ethr =  1.82E-09,  avg # of iterations =  1.0

     total cpu time spent up to now is     3954.9 secs

     total energy              =    -704.94623038 Ry
     Harris-Foulkes estimate   =    -704.94623042 Ry
     estimated scf accuracy    <       0.00000023 Ry

     iteration #  9     ecut=    40.00 Ry     beta= 0.60
     Davidson diagonalization with overlap
     ethr =  3.00E-10,  avg # of iterations =  4.1

     total cpu time spent up to now is     3983.9 secs

     total energy              =    -704.94623043 Ry
     Harris-Foulkes estimate   =    -704.94623044 Ry
     estimated scf accuracy    <       0.00000006 Ry

     iteration # 10     ecut=    40.00 Ry     beta= 0.60
     Davidson diagonalization with overlap
     ethr =  8.18E-11,  avg # of iterations =  1.0

     total cpu time spent up to now is     4004.2 secs

     total energy              =    -704.94623043 Ry
     Harris-Foulkes estimate   =    -704.94623043 Ry
     estimated scf accuracy    <       0.00000002 Ry

     iteration # 11     ecut=    40.00 Ry     beta= 0.60
     Davidson diagonalization with overlap
     ethr =  2.07E-11,  avg # of iterations =  3.6

     total cpu time spent up to now is     4030.8 secs

     total energy              =    -704.94623043 Ry
     Harris-Foulkes estimate   =    -704.94623043 Ry
     estimated scf accuracy    <          2.6E-10 Ry

     iteration # 12     ecut=    40.00 Ry     beta= 0.60
     Davidson diagonalization with overlap
     ethr =  3.40E-13,  avg # of iterations =  4.3

     total cpu time spent up to now is     4060.3 secs

     End of self-consistent calculation

     Number of k-points >= 100: set verbosity='high' to print the bands.

     the Fermi energy is    16.4494 ev

!    total energy              =    -704.94623043 Ry
     Harris-Foulkes estimate   =    -704.94623043 Ry
     estimated scf accuracy    <          1.8E-11 Ry

     The total energy is the sum of the following terms:

     one-electron contribution =    -151.38875625 Ry
     hartree contribution      =     110.10203923 Ry
     xc contribution           =    -102.74949879 Ry
     ewald contribution        =    -560.90816669 Ry
     smearing contrib. (-TS)   =      -0.00184793 Ry

     convergence has been achieved in  12 iterations

     Forces acting on atoms (cartesian axes, Ry/au):

     atom    1 type  2   force =     0.00000000    0.00000000    0.00035717
     atom    2 type  1   force =    -0.00019275    0.00011128    0.00000000
     atom    3 type  2   force =    -0.00000000   -0.00000000   -0.00035717
     atom    4 type  1   force =     0.00000000   -0.00022256    0.00000000
     atom    5 type  1   force =    -0.00000000   -0.00000000    0.00000000
     atom    6 type  1   force =     0.00019275    0.00011128   -0.00000000

     Total force =     0.000635     Total SCF correction =     0.000001


     Computing stress (Cartesian axis) and pressure

          total   stress  (Ry/bohr**3)                   (kbar)     P=    3.33
  -0.00001037   0.00000000   0.00000000         -1.53      0.00      0.00
   0.00000000  -0.00001037  -0.00000000          0.00     -1.53     -0.00
   0.00000000   0.00000000   0.00008857          0.00      0.00     13.03


     number of scf cycles    =   6
     number of bfgs steps    =   5

     enthalpy old            =    -704.9449413978 Ry
     enthalpy new            =    -704.9462304345 Ry

     CASE: enthalpy_new < enthalpy_old

     new trust radius        =       0.0681269579 bohr
     new conv_thr            =            3.6E-11 Ry

     new unit-cell volume =    732.09862 a.u.^3 (   108.48582 Ang^3 )
     density =      7.15364 g/cm^3

CELL_PARAMETERS (alat=  1.88972599)
   2.873183975   0.000000000   5.058180090
  -1.436591987   2.488250504   5.058180090
  -1.436591987  -2.488250504   5.058180090

ATOMIC_POSITIONS (angstrom)
Ti       0.000000000   0.000000000  10.117409967
Nb       0.009148366  -1.664115481   7.587270135
Ti       0.000000000   0.000000000  15.173490482
Nb       1.436593425   0.839977968   7.587270135
Nb       0.000000000   0.000000000   5.058180090
Nb      -1.445737479   0.824135024   7.587270135


     NEW-OLD atomic charge density approx. for the potential

     Check: negative/imaginary core charge=   -0.000001    0.000000
     extrapolated charge   76.11180, renormalised to   76.00000

     total cpu time spent up to now is     4071.7 secs

     Self-consistent Calculation

     iteration #  1     ecut=    40.00 Ry     beta= 0.60
     Davidson diagonalization with overlap
     c_bands:  1 eigenvalues not converged
     c_bands:  1 eigenvalues not converged
     c_bands:  1 eigenvalues not converged
     c_bands:  1 eigenvalues not converged
     c_bands:  1 eigenvalues not converged
     c_bands:  1 eigenvalues not converged
     c_bands:  1 eigenvalues not converged
     c_bands:  1 eigenvalues not converged
     c_bands:  1 eigenvalues not converged
     c_bands:  2 eigenvalues not converged
     c_bands:  1 eigenvalues not converged
     ethr =  1.00E-06,  avg # of iterations =  8.3

     total cpu time spent up to now is     4123.9 secs

     total energy              =    -704.94544935 Ry
     Harris-Foulkes estimate   =    -704.78787162 Ry
     estimated scf accuracy    <       0.00158478 Ry

     iteration #  2     ecut=    40.00 Ry     beta= 0.60
     Davidson diagonalization with overlap
     ethr =  2.09E-06,  avg # of iterations =  5.4

     total cpu time spent up to now is     4165.5 secs

     total energy              =    -704.94375771 Ry
     Harris-Foulkes estimate   =    -704.94962434 Ry
     estimated scf accuracy    <       0.03322628 Ry

     iteration #  3     ecut=    40.00 Ry     beta= 0.60
     Davidson diagonalization with overlap
     ethr =  2.09E-06,  avg # of iterations =  5.6

     total cpu time spent up to now is     4201.0 secs

     total energy              =    -704.94647739 Ry
     Harris-Foulkes estimate   =    -704.94697018 Ry
     estimated scf accuracy    <       0.00309460 Ry

     iteration #  4     ecut=    40.00 Ry     beta= 0.60
     Davidson diagonalization with overlap
     ethr =  2.09E-06,  avg # of iterations =  3.5

     total cpu time spent up to now is     4223.8 secs

     total energy              =    -704.94659858 Ry
     Harris-Foulkes estimate   =    -704.94671600 Ry
     estimated scf accuracy    <       0.00034355 Ry

     iteration #  5     ecut=    40.00 Ry     beta= 0.60
     Davidson diagonalization with overlap
     ethr =  4.52E-07,  avg # of iterations =  3.7

     total cpu time spent up to now is     4251.1 secs

     total energy              =    -704.94665041 Ry
     Harris-Foulkes estimate   =    -704.94668411 Ry
     estimated scf accuracy    <       0.00015047 Ry

     iteration #  6     ecut=    40.00 Ry     beta= 0.60
     Davidson diagonalization with overlap
     ethr =  1.98E-07,  avg # of iterations =  2.6

     total cpu time spent up to now is     4278.1 secs

     total energy              =    -704.94666049 Ry
     Harris-Foulkes estimate   =    -704.94666241 Ry
     estimated scf accuracy    <       0.00000991 Ry

     iteration #  7     ecut=    40.00 Ry     beta= 0.60
     Davidson diagonalization with overlap
     ethr =  1.30E-08,  avg # of iterations =  4.8

     total cpu time spent up to now is     4310.6 secs

     total energy              =    -704.94666510 Ry
     Harris-Foulkes estimate   =    -704.94666645 Ry
     estimated scf accuracy    <       0.00000867 Ry

     iteration #  8     ecut=    40.00 Ry     beta= 0.60
     Davidson diagonalization with overlap
     ethr =  1.14E-08,  avg # of iterations =  1.0

     total cpu time spent up to now is     4343.1 secs

     total energy              =    -704.94666543 Ry
     Harris-Foulkes estimate   =    -704.94666554 Ry
     estimated scf accuracy    <       0.00000060 Ry

     iteration #  9     ecut=    40.00 Ry     beta= 0.60
     Davidson diagonalization with overlap
     ethr =  7.92E-10,  avg # of iterations =  5.0

     total cpu time spent up to now is     4382.0 secs

     total energy              =    -704.94666574 Ry
     Harris-Foulkes estimate   =    -704.94666580 Ry
     estimated scf accuracy    <       0.00000077 Ry

     iteration # 10     ecut=    40.00 Ry     beta= 0.60
     Davidson diagonalization with overlap
     ethr =  7.92E-10,  avg # of iterations =  1.0

     total cpu time spent up to now is     4402.2 secs

     total energy              =    -704.94666571 Ry
     Harris-Foulkes estimate   =    -704.94666575 Ry
     estimated scf accuracy    <       0.00000030 Ry

     iteration # 11     ecut=    40.00 Ry     beta= 0.60
     Davidson diagonalization with overlap
     ethr =  4.01E-10,  avg # of iterations =  3.3

     total cpu time spent up to now is     4430.0 secs

     total energy              =    -704.94666574 Ry
     Harris-Foulkes estimate   =    -704.94666574 Ry
     estimated scf accuracy    <          7.6E-09 Ry

     iteration # 12     ecut=    40.00 Ry     beta= 0.60
     Davidson diagonalization with overlap
     ethr =  9.96E-12,  avg # of iterations =  4.2

     total cpu time spent up to now is     4464.8 secs

     total energy              =    -704.94666574 Ry
     Harris-Foulkes estimate   =    -704.94666574 Ry
     estimated scf accuracy    <          3.2E-10 Ry

     iteration # 13     ecut=    40.00 Ry     beta= 0.60
     Davidson diagonalization with overlap
     ethr =  4.22E-13,  avg # of iterations =  4.1

     total cpu time spent up to now is     4492.0 secs

     total energy              =    -704.94666574 Ry
     Harris-Foulkes estimate   =    -704.94666574 Ry
     estimated scf accuracy    <          1.3E-10 Ry

     iteration # 14     ecut=    40.00 Ry     beta= 0.60
     Davidson diagonalization with overlap
     ethr =  1.76E-13,  avg # of iterations =  2.5

     total cpu time spent up to now is     4519.5 secs

     End of self-consistent calculation

     Number of k-points >= 100: set verbosity='high' to print the bands.

     the Fermi energy is    16.4096 ev

!    total energy              =    -704.94666574 Ry
     Harris-Foulkes estimate   =    -704.94666574 Ry
     estimated scf accuracy    <          8.3E-12 Ry

     The total energy is the sum of the following terms:

     one-electron contribution =    -152.21842291 Ry
     hartree contribution      =     110.43949133 Ry
     xc contribution           =    -102.75304537 Ry
     ewald contribution        =    -560.41271610 Ry
     smearing contrib. (-TS)   =      -0.00197269 Ry

     convergence has been achieved in  14 iterations

     Forces acting on atoms (cartesian axes, Ry/au):

     atom    1 type  2   force =     0.00000000    0.00000000    0.00029457
     atom    2 type  1   force =    -0.00133014    0.00076796    0.00000000
     atom    3 type  2   force =    -0.00000000    0.00000000   -0.00029457
     atom    4 type  1   force =     0.00000000   -0.00153591    0.00000000
     atom    5 type  1   force =     0.00000000    0.00000000    0.00000000
     atom    6 type  1   force =     0.00133014    0.00076796   -0.00000000

     Total force =     0.002693     Total SCF correction =     0.000003


     Computing stress (Cartesian axis) and pressure

          total   stress  (Ry/bohr**3)                   (kbar)     P=    0.90
   0.00000713  -0.00000000  -0.00000000          1.05     -0.00     -0.00
  -0.00000000   0.00000713   0.00000000         -0.00      1.05      0.00
  -0.00000000  -0.00000000   0.00000406         -0.00     -0.00      0.60


     number of scf cycles    =   7
     number of bfgs steps    =   6

     enthalpy old            =    -704.9462304345 Ry
     enthalpy new            =    -704.9466657420 Ry

     CASE: enthalpy_new < enthalpy_old

     new trust radius        =       0.0024689394 bohr
     new conv_thr            =            1.0E-10 Ry

     new unit-cell volume =    732.53916 a.u.^3 (   108.55110 Ang^3 )
     density =      7.14934 g/cm^3

CELL_PARAMETERS (alat=  1.88972599)
   2.874494843   0.000000000   5.056608721
  -1.437247422   2.489385750   5.056608721
  -1.437247422  -2.489385750   5.056608721

ATOMIC_POSITIONS (angstrom)
Ti       0.000000000   0.000000000  10.114403766
Nb       0.008459306  -1.664474482   7.584913082
Ti       0.000000000   0.000000000  15.168639840
Nb       1.437248859   0.839560725   7.584913082
Nb       0.000000000   0.000000000   5.056608721
Nb      -1.445703853   0.824911268   7.584913082


     NEW-OLD atomic charge density approx. for the potential

     Check: negative/imaginary core charge=   -0.000001    0.000000
     extrapolated charge   76.04450, renormalised to   76.00000

     total cpu time spent up to now is     4533.3 secs

     Self-consistent Calculation

     iteration #  1     ecut=    40.00 Ry     beta= 0.60
     Davidson diagonalization with overlap
     ethr =  1.00E-06,  avg # of iterations =  2.0

[...]
     celldm(4)=   0.000000  celldm(5)=   0.000000  celldm(6)=   0.000000

     crystal axes: (cart. coord. in units of alat)
               a(1) = (   2.874020   0.000000   5.058513 )  
               a(2) = (  -1.437010   2.488975   5.058513 )  
               a(3) = (  -1.437010  -2.488975   5.058513 )  

     reciprocal axes: (cart. coord. in units 2 pi/alat)
               b(1) = (  0.231963  0.000000  0.065896 )  
               b(2) = ( -0.115982  0.200886  0.065896 )  
               b(3) = ( -0.115982 -0.200886  0.065896 )  


     PseudoPot. # 1 for Nb read from file:
     ./Nb.pbe-nsp-van.UPF
     MD5 check sum: 0a22fc7fb0ba19a08ca5db297a5d2854
     Pseudo is Ultrasoft + core correction, Zval = 13.0
     Generated by new atomic code, or converted to UPF format
     Using radial grid of  887 points,  6 beta functions with: 
                l(1) =   0
                l(2) =   0
                l(3) =   1
                l(4) =   1
                l(5) =   2
                l(6) =   2
     Q(r) pseudized with  6 coefficients,  rinner =    1.000   1.000   1.000
                                                       1.000   1.000

     PseudoPot. # 2 for Ti read from file:
     ./Ti.pbe-sp-van_ak.UPF
     MD5 check sum: f98fea3e8887528921fefa5636a534ca
     Pseudo is Ultrasoft, Zval = 12.0
     Generated by new atomic code, or converted to UPF format
     Using radial grid of  851 points,  6 beta functions with: 
                l(1) =   0
                l(2) =   0
                l(3) =   1
                l(4) =   1
                l(5) =   2
                l(6) =   2
     Q(r) pseudized with  8 coefficients,  rinner =    1.000   1.000   1.000
                                                       1.000   1.000

     atomic species   valence    mass     pseudopotential
        Nb            13.00    92.90638     Nb( 1.00)
        Ti            12.00    47.86700     Ti( 1.00)

      6 Sym. Ops. (no inversion) found ( 3 have fractional translation)



   Cartesian axes

     site n.     atom                  positions (alat units)
         1           Ti  tau(   1) = (  -0.0000000   0.0000000  10.1217788  )
         2           Nb  tau(   2) = (   0.0053658  -1.6624147   7.5877695  )
         3           Ti  tau(   3) = (  -0.0000000   0.0000000  15.1707862  )
         4           Nb  tau(   4) = (   1.4370118   0.8358518   7.5877695  )
         5           Nb  tau(   5) = (  -0.0000000   0.0000000   5.0585130  )
         6           Nb  tau(   6) = (  -1.4423733   0.8265604   7.5877695  )

     number of k points=   189  Marzari-Vanderbilt smearing, width (Ry)=  0.0200

     Number of k-points >= 100: set verbosity='high' to print them.

     Dense  grid:    98791 G-vectors     FFT dimensions: (  72,  72,  72)

     Smooth grid:    24951 G-vectors     FFT dimensions: (  45,  45,  45)

     Estimated max dynamical RAM per process >     201.56 MB

     Estimated total dynamical RAM >     806.25 MB

     Check: negative/imaginary core charge=   -0.000001    0.000000

     Initial potential from superposition of free atoms

     starting charge   73.98898, renormalised to   76.00000
     Starting wfcs are   72 randomized atomic wfcs

     total cpu time spent up to now is     8691.6 secs

     Self-consistent Calculation

     iteration #  1     ecut=    40.00 Ry     beta= 0.60
     Davidson diagonalization with overlap
     ethr =  1.00E-06,  avg # of iterations = 12.4

     total cpu time spent up to now is     8762.7 secs

     total energy              =    -672.91282106 Ry
     Harris-Foulkes estimate   =    -708.08025252 Ry
     estimated scf accuracy    <      43.99320579 Ry

     iteration #  2     ecut=    40.00 Ry     beta= 0.60
     Davidson diagonalization with overlap
     ethr =  1.00E-02,  avg # of iterations =  6.7

     total cpu time spent up to now is     8807.3 secs

     total energy              =    -680.10103769 Ry
     Harris-Foulkes estimate   =    -759.96061267 Ry
     estimated scf accuracy    <     264.75691371 Ry

     iteration #  3     ecut=    40.00 Ry     beta= 0.60
     Davidson diagonalization with overlap
     ethr =  1.00E-02,  avg # of iterations =  5.0

     total cpu time spent up to now is     8845.3 secs

     total energy              =    -706.28748282 Ry
     Harris-Foulkes estimate   =    -710.52784183 Ry
     estimated scf accuracy    <      24.06175872 Ry

     iteration #  4     ecut=    40.00 Ry     beta= 0.60
     Davidson diagonalization with overlap
     ethr =  1.00E-02,  avg # of iterations =  2.0

     total cpu time spent up to now is     8865.5 secs

     total energy              =    -707.06258210 Ry
     Harris-Foulkes estimate   =    -707.56733775 Ry
     estimated scf accuracy    <      13.24160571 Ry

     iteration #  5     ecut=    40.00 Ry     beta= 0.60
     Davidson diagonalization with overlap
     ethr =  1.00E-02,  avg # of iterations =  1.0

     total cpu time spent up to now is     8884.5 secs

     total energy              =    -706.48784521 Ry
     Harris-Foulkes estimate   =    -707.10682131 Ry
     estimated scf accuracy    <      10.83021980 Ry

     iteration #  6     ecut=    40.00 Ry     beta= 0.60
     Davidson diagonalization with overlap
     ethr =  1.00E-02,  avg # of iterations =  1.0

     total cpu time spent up to now is     8903.3 secs

     total energy              =    -703.97404040 Ry
     Harris-Foulkes estimate   =    -706.51836282 Ry
     estimated scf accuracy    <       9.37850059 Ry

     iteration #  7     ecut=    40.00 Ry     beta= 0.60
     Davidson diagonalization with overlap
     ethr =  1.00E-02,  avg # of iterations =  4.0

     total cpu time spent up to now is     8928.7 secs

     total energy              =    -704.94983974 Ry
     Harris-Foulkes estimate   =    -704.95712128 Ry
     estimated scf accuracy    <       0.27323777 Ry

     iteration #  8     ecut=    40.00 Ry     beta= 0.60
     Davidson diagonalization with overlap
     ethr =  3.60E-04,  avg # of iterations =  5.3

     total cpu time spent up to now is     8958.0 secs

     total energy              =    -704.95280370 Ry
     Harris-Foulkes estimate   =    -705.00309779 Ry
     estimated scf accuracy    <       0.19871927 Ry

     iteration #  9     ecut=    40.00 Ry     beta= 0.60
     Davidson diagonalization with overlap
     ethr =  2.61E-04,  avg # of iterations =  3.8

     total cpu time spent up to now is     8983.4 secs

     total energy              =    -704.91891012 Ry
     Harris-Foulkes estimate   =    -704.99508071 Ry
     estimated scf accuracy    <       0.52980623 Ry

     iteration # 10     ecut=    40.00 Ry     beta= 0.60
     Davidson diagonalization with overlap
     ethr =  2.61E-04,  avg # of iterations =  3.2

     total cpu time spent up to now is     9005.0 secs

     total energy              =    -704.94311654 Ry
     Harris-Foulkes estimate   =    -704.94191448 Ry
     estimated scf accuracy    <       0.06161875 Ry

     iteration # 11     ecut=    40.00 Ry     beta= 0.60
     Davidson diagonalization with overlap
     ethr =  8.11E-05,  avg # of iterations =  3.3

     total cpu time spent up to now is     9026.9 secs

     total energy              =    -704.93420574 Ry
     Harris-Foulkes estimate   =    -704.94589290 Ry
     estimated scf accuracy    <       0.05843457 Ry

     iteration # 12     ecut=    40.00 Ry     beta= 0.60
     Davidson diagonalization with overlap
     ethr =  7.69E-05,  avg # of iterations =  5.3

     total cpu time spent up to now is     9054.7 secs

     total energy              =    -704.94732134 Ry
     Harris-Foulkes estimate   =    -704.94706609 Ry
     estimated scf accuracy    <       0.03912227 Ry

     iteration # 13     ecut=    40.00 Ry     beta= 0.60
     Davidson diagonalization with overlap
     ethr =  5.15E-05,  avg # of iterations =  1.4

     total cpu time spent up to now is     9075.0 secs

     total energy              =    -704.93849488 Ry
     Harris-Foulkes estimate   =    -704.94754532 Ry
     estimated scf accuracy    <       0.04316542 Ry

     iteration # 14     ecut=    40.00 Ry     beta= 0.60
     Davidson diagonalization with overlap
     ethr =  5.15E-05,  avg # of iterations =  3.4

     total cpu time spent up to now is     9096.8 secs

     total energy              =    -704.94252792 Ry
     Harris-Foulkes estimate   =    -704.94419737 Ry
     estimated scf accuracy    <       0.00581750 Ry

     iteration # 15     ecut=    40.00 Ry     beta= 0.60
     Davidson diagonalization with overlap
     ethr =  7.65E-06,  avg # of iterations =  4.5

     total cpu time spent up to now is     9123.3 secs

     total energy              =    -704.94395118 Ry
     Harris-Foulkes estimate   =    -704.94470159 Ry
     estimated scf accuracy    <       0.00615260 Ry

     iteration # 16     ecut=    40.00 Ry     beta= 0.60
     Davidson diagonalization with overlap
     ethr =  7.65E-06,  avg # of iterations =  1.1

     total cpu time spent up to now is     9142.2 secs

     total energy              =    -704.94417461 Ry
     Harris-Foulkes estimate   =    -704.94421639 Ry
     estimated scf accuracy    <       0.00049027 Ry

     iteration # 17     ecut=    40.00 Ry     beta= 0.60
     Davidson diagonalization with overlap
     ethr =  6.45E-07,  avg # of iterations =  5.0

     total cpu time spent up to now is     9172.8 secs

     total energy              =    -704.94432915 Ry
     Harris-Foulkes estimate   =    -704.94434005 Ry
     estimated scf accuracy    <       0.00012994 Ry

     iteration # 18     ecut=    40.00 Ry     beta= 0.60
     Davidson diagonalization with overlap
     ethr =  1.71E-07,  avg # of iterations =  1.0

     total cpu time spent up to now is     9191.7 secs

     total energy              =    -704.94432821 Ry
     Harris-Foulkes estimate   =    -704.94433136 Ry
     estimated scf accuracy    <       0.00004814 Ry

     iteration # 19     ecut=    40.00 Ry     beta= 0.60
     Davidson diagonalization with overlap
     ethr =  6.33E-08,  avg # of iterations =  2.7

     total cpu time spent up to now is     9212.5 secs

     total energy              =    -704.94432950 Ry
     Harris-Foulkes estimate   =    -704.94432992 Ry
     estimated scf accuracy    <       0.00002147 Ry

     iteration # 20     ecut=    40.00 Ry     beta= 0.60
     Davidson diagonalization with overlap
     ethr =  2.83E-08,  avg # of iterations =  2.6

     total cpu time spent up to now is     9233.2 secs

     total energy              =    -704.94432991 Ry
     Harris-Foulkes estimate   =    -704.94433012 Ry
     estimated scf accuracy    <       0.00001322 Ry

     iteration # 21     ecut=    40.00 Ry     beta= 0.60
     Davidson diagonalization with overlap
     ethr =  1.74E-08,  avg # of iterations =  2.5

     total cpu time spent up to now is     9253.9 secs

     total energy              =    -704.94432947 Ry
     Harris-Foulkes estimate   =    -704.94433022 Ry
     estimated scf accuracy    <       0.00000827 Ry

     iteration # 22     ecut=    40.00 Ry     beta= 0.60
     Davidson diagonalization with overlap
     ethr =  1.09E-08,  avg # of iterations =  2.5

     total cpu time spent up to now is     9274.6 secs

     total energy              =    -704.94432959 Ry
     Harris-Foulkes estimate   =    -704.94432980 Ry
     estimated scf accuracy    <       0.00000181 Ry

     iteration # 23     ecut=    40.00 Ry     beta= 0.60
     Davidson diagonalization with overlap
     ethr =  2.38E-09,  avg # of iterations =  4.0

     total cpu time spent up to now is     9302.0 secs

     total energy              =    -704.94432993 Ry
     Harris-Foulkes estimate   =    -704.94432996 Ry
     estimated scf accuracy    <       0.00000011 Ry

     iteration # 24     ecut=    40.00 Ry     beta= 0.60
     Davidson diagonalization with overlap
     ethr =  1.49E-10,  avg # of iterations =  4.0

     total cpu time spent up to now is     9326.6 secs

     total energy              =    -704.94432996 Ry
     Harris-Foulkes estimate   =    -704.94432995 Ry
     estimated scf accuracy    <       0.00000003 Ry

     iteration # 25     ecut=    40.00 Ry     beta= 0.60
     Davidson diagonalization with overlap
     ethr =  4.58E-11,  avg # of iterations =  3.1

     total cpu time spent up to now is     9348.3 secs

     total energy              =    -704.94432995 Ry
     Harris-Foulkes estimate   =    -704.94432996 Ry
     estimated scf accuracy    <       0.00000008 Ry

     iteration # 26     ecut=    40.00 Ry     beta= 0.60
     Davidson diagonalization with overlap
     ethr =  4.58E-11,  avg # of iterations =  1.0

     total cpu time spent up to now is     9367.1 secs

     total energy              =    -704.94432995 Ry
     Harris-Foulkes estimate   =    -704.94432995 Ry
     estimated scf accuracy    <       0.00000004 Ry

     iteration # 27     ecut=    40.00 Ry     beta= 0.60
     Davidson diagonalization with overlap
     ethr =  4.58E-11,  avg # of iterations =  1.6

     total cpu time spent up to now is     9386.7 secs

     total energy              =    -704.94432995 Ry
     Harris-Foulkes estimate   =    -704.94432995 Ry
     estimated scf accuracy    <       0.00000001 Ry

     iteration # 28     ecut=    40.00 Ry     beta= 0.60
     Davidson diagonalization with overlap
     ethr =  1.39E-11,  avg # of iterations =  3.4

     total cpu time spent up to now is     9409.3 secs

     total energy              =    -704.94432995 Ry
     Harris-Foulkes estimate   =    -704.94432995 Ry
     estimated scf accuracy    <          7.3E-10 Ry

     iteration # 29     ecut=    40.00 Ry     beta= 0.60
     Davidson diagonalization with overlap
     ethr =  9.58E-13,  avg # of iterations =  4.2

     total cpu time spent up to now is     9435.2 secs

     total energy              =    -704.94432995 Ry
     Harris-Foulkes estimate   =    -704.94432995 Ry
     estimated scf accuracy    <          1.7E-11 Ry

     iteration # 30     ecut=    40.00 Ry     beta= 0.60
     Davidson diagonalization with overlap
     ethr =  1.00E-13,  avg # of iterations =  4.2

     total cpu time spent up to now is     9461.2 secs

     total energy              =    -704.94432995 Ry
     Harris-Foulkes estimate   =    -704.94432995 Ry
     estimated scf accuracy    <          1.0E-10 Ry

     iteration # 31     ecut=    40.00 Ry     beta= 0.60
     Davidson diagonalization with overlap
     ethr =  1.00E-13,  avg # of iterations =  2.7

     total cpu time spent up to now is     9482.0 secs

     total energy              =    -704.94432995 Ry
     Harris-Foulkes estimate   =    -704.94432995 Ry
     estimated scf accuracy    <          2.2E-12 Ry

     iteration # 32     ecut=    40.00 Ry     beta= 0.60
     Davidson diagonalization with overlap
     ethr =  1.00E-13,  avg # of iterations =  1.8

     total cpu time spent up to now is     9501.6 secs

     total energy              =    -704.94432995 Ry
     Harris-Foulkes estimate   =    -704.94432995 Ry
     estimated scf accuracy    <          1.9E-12 Ry

     iteration # 33     ecut=    40.00 Ry     beta= 0.60
     Davidson diagonalization with overlap
     ethr =  1.00E-13,  avg # of iterations =  1.0

     total cpu time spent up to now is     9520.5 secs

     total energy              =    -704.94432995 Ry
     Harris-Foulkes estimate   =    -704.94432995 Ry
     estimated scf accuracy    <          2.1E-12 Ry

     iteration # 34     ecut=    40.00 Ry     beta= 0.60
     Davidson diagonalization with overlap
     ethr =  1.00E-13,  avg # of iterations =  1.0

     total cpu time spent up to now is     9539.3 secs

     End of self-consistent calculation

     Number of k-points >= 100: set verbosity='high' to print the bands.

     the Fermi energy is    16.3980 ev

!    total energy              =    -704.94432995 Ry
     Harris-Foulkes estimate   =    -704.94432995 Ry
     estimated scf accuracy    <          8.9E-13 Ry

     The total energy is the sum of the following terms:

     one-electron contribution =    -152.38077749 Ry
     hartree contribution      =     110.48117666 Ry
     xc contribution           =    -102.74726278 Ry
     ewald contribution        =    -560.29550962 Ry
     smearing contrib. (-TS)   =      -0.00195672 Ry

     convergence has been achieved in  34 iterations

     Forces acting on atoms (cartesian axes, Ry/au):

     atom    1 type  2   force =    -0.00000000    0.00000000    0.00002427
     atom    2 type  1   force =    -0.00000151    0.00000087   -0.00000000
     atom    3 type  2   force =     0.00000000    0.00000000   -0.00002427
     atom    4 type  1   force =    -0.00000000   -0.00000174   -0.00000000
     atom    5 type  1   force =    -0.00000000   -0.00000000    0.00000000
     atom    6 type  1   force =     0.00000151    0.00000087    0.00000000

     Total force =     0.000034     Total SCF correction =     0.000000


     Computing stress (Cartesian axis) and pressure

          total   stress  (Ry/bohr**3)                   (kbar)     P=   -1.22
  -0.00001206   0.00000000  -0.00000000         -1.77      0.00     -0.00
  -0.00000000  -0.00001206   0.00000000         -0.00     -1.77      0.00
  -0.00000000   0.00000000  -0.00000078         -0.00      0.00     -0.11

 
     init_run     :     23.92s CPU    198.00s WALL (       2 calls)
     electrons    :   7726.92s CPU   8988.41s WALL (      19 calls)
     update_pot   :     23.27s CPU     28.32s WALL (      17 calls)
     forces       :     47.82s CPU     49.40s WALL (      19 calls)
     stress       :    120.13s CPU    124.65s WALL (      19 calls)

     Called by init_run:
     wfcinit      :     21.59s CPU     22.94s WALL (       2 calls)
     potinit      :      0.71s CPU     84.76s WALL (       2 calls)
     hinit0       :      1.27s CPU     89.88s WALL (       2 calls)

     Called by electrons:
     c_bands      :   6578.23s CPU   7674.76s WALL (     306 calls)
     sum_band     :   1086.72s CPU   1119.09s WALL (     306 calls)
     v_of_rho     :     14.60s CPU     14.69s WALL (     315 calls)
     newd         :     48.33s CPU     72.10s WALL (     315 calls)
     mix_rho      :      1.62s CPU      1.62s WALL (     306 calls)

     Called by c_bands:
     init_us_2    :     71.28s CPU     72.04s WALL (  123228 calls)
     cegterg      :   6117.72s CPU   6181.71s WALL (   57834 calls)

     Called by sum_band:
     sum_band:bec :      2.33s CPU      2.44s WALL (   57834 calls)
     addusdens    :     60.21s CPU     81.08s WALL (     306 calls)

     Called by *egterg:
     h_psi        :   4343.39s CPU   4402.90s WALL (  250278 calls)
     s_psi        :    166.27s CPU    166.67s WALL (  250278 calls)
     g_psi        :     29.09s CPU     29.26s WALL (  192066 calls)
     cdiaghg      :   1011.75s CPU   1013.50s WALL (  244797 calls)

     Called by h_psi:
     h_psi:pot    :   4334.02s CPU   4393.01s WALL (  250278 calls)
     h_psi:calbec :    177.85s CPU    178.50s WALL (  250278 calls)
     vloc_psi     :   3988.92s CPU   4046.43s WALL (  250278 calls)
     add_vuspsi   :    166.28s CPU    166.78s WALL (  250278 calls)

     General routines
     calbec       :    263.77s CPU    264.37s WALL (  326067 calls)
     fft          :      8.85s CPU     97.52s WALL (    4578 calls)
     ffts         :      0.33s CPU      0.33s WALL (     621 calls)
     fftw         :   4395.60s CPU   4452.93s WALL (16299088 calls)
     interpolate  :      0.85s CPU      0.85s WALL (     315 calls)
 
     Parallel routines
     fft_scatt_xy :    848.19s CPU    843.57s WALL (16304287 calls)
     fft_scatt_yz :    778.35s CPU    794.63s WALL (16304287 calls)
 
     PWSCF        :     2h12m CPU       12h 2m WALL

      39h
 
   This run was terminated on:  16:16:55  27Jan2020            

=------------------------------------------------------------------------------=
   JOB DONE.
=------------------------------------------------------------------------------=
