
     Program PWSCF v.6.3MaX starts on 10Feb2020 at 13:10:21 

     This program is part of the open-source Quantum ESPRESSO suite
     for quantum simulation of materials; please cite
         "P. Giannozzi et al., J. Phys.:Condens. Matter 21 395502 (2009);
         "P. Giannozzi et al., J. Phys.:Condens. Matter 29 465901 (2017);
          URL http://www.quantum-espresso.org", 
     in publications or presentations arising from this work. More details at
     http://www.quantum-espresso.org/quote

     Parallel version (MPI), running on     4 processors

     MPI processes distributed on     1 nodes
     R & G space division:  proc/nbgrp/npool/nimage =       4
     Waiting for input...
     Reading input from standard input

     Current dimensions of program PWSCF are:
     Max number of different atomic species (ntypx) = 10
     Max number of k-points (npk) =  40000
     Max angular momentum in pseudopotentials (lmaxx) =  3
     Message from routine iosys:
     minimal I/O required, wf_collect reset to FALSE

     Subspace diagonalization in iterative solution of the eigenvalue problem:
     a serial algorithm will be used

 
     Parallelization info
     --------------------
     sticks:   dense  smooth     PW     G-vecs:    dense   smooth      PW
     Min         621     246     75                41578    10500    1730
     Max         622     247     76                41582    10501    1734
     Sum        2487     985    301               166321    42003    6925
 


     bravais-lattice index     =            0
     lattice parameter (alat)  =       1.8897  a.u.
     unit-cell volume          =     880.0102 (a.u.)^3
     number of atoms/cell      =            6
     number of atomic types    =            2
     number of electrons       =        74.00
     number of Kohn-Sham states=           44
     kinetic-energy cutoff     =      50.0000  Ry
     charge density cutoff     =     500.0000  Ry
     convergence threshold     =      1.0E-10
     mixing beta               =       0.6000
     number of iterations used =            8  plain     mixing
     Exchange-correlation      = SLA PW PBE PBE ( 1  4  3  4 0 0)
     nstep                     =           50


     celldm(1)=   1.889726  celldm(2)=   0.000000  celldm(3)=   0.000000
     celldm(4)=   0.000000  celldm(5)=   0.000000  celldm(6)=   0.000000

     crystal axes: (cart. coord. in units of alat)
               a(1) = (  -1.758031  -1.758031  -1.758031 )  
               a(2) = (   1.758031   1.758031  -5.274095 )  
               a(3) = (   5.274095  -5.274095  -1.758031 )  

     reciprocal axes: (cart. coord. in units 2 pi/alat)
               b(1) = ( -0.237008 -0.189606 -0.142205 )  
               b(2) = (  0.047402  0.094803 -0.142205 )  
               b(3) = (  0.094803 -0.094803  0.000000 )  


     PseudoPot. # 1 for Nb read from file:
     ./Nb.pbe-nsp-van.UPF
     MD5 check sum: 0a22fc7fb0ba19a08ca5db297a5d2854
     Pseudo is Ultrasoft + core correction, Zval = 13.0
     Generated by new atomic code, or converted to UPF format
     Using radial grid of  887 points,  6 beta functions with: 
                l(1) =   0
                l(2) =   0
                l(3) =   1
                l(4) =   1
                l(5) =   2
                l(6) =   2
     Q(r) pseudized with  6 coefficients,  rinner =    1.000   1.000   1.000
                                                       1.000   1.000

     PseudoPot. # 2 for Ti read from file:
     ./Ti.pbe-sp-van_ak.UPF
     MD5 check sum: f98fea3e8887528921fefa5636a534ca
     Pseudo is Ultrasoft, Zval = 12.0
     Generated by new atomic code, or converted to UPF format
     Using radial grid of  851 points,  6 beta functions with: 
                l(1) =   0
                l(2) =   0
                l(3) =   1
                l(4) =   1
                l(5) =   2
                l(6) =   2
     Q(r) pseudized with  8 coefficients,  rinner =    1.000   1.000   1.000
                                                       1.000   1.000

     atomic species   valence    mass     pseudopotential
        Nb            13.00    92.90638     Nb( 1.00)
        Ti            12.00    47.86700     Ti( 1.00)

     No symmetry found
          (note:  1 additional sym.ops. were found but ignored
           their fractional translations are incommensurate with FFT grid)


   Cartesian axes

     site n.     atom                  positions (alat units)
         1           Ti  tau(   1) = (   3.5160633  -3.5160633  -7.0321265  )
         2           Ti  tau(   2) = (   1.7580316  -1.7580316  -5.2740949  )
         3           Ti  tau(   3) = (   5.2740949  -5.2740949  -5.2740949  )
         4           Ti  tau(   4) = (   3.5160633  -3.5160633  -3.5160633  )
         5           Nb  tau(   5) = (   1.7580316  -1.7580316  -1.7580316  )
         6           Nb  tau(   6) = (   5.2740949  -5.2740949  -8.7901582  )

     number of k points=   762  Marzari-Vanderbilt smearing, width (Ry)=  0.0200

     Number of k-points >= 100: set verbosity='high' to print them.

     Dense  grid:   166321 G-vectors     FFT dimensions: (  45,  80, 108)

     Smooth grid:    42003 G-vectors     FFT dimensions: (  25,  50,  72)

     Estimated max dynamical RAM per process >     830.44 MB

     Estimated total dynamical RAM >       3.24 GB

     Initial potential from superposition of free atoms

     starting charge   69.99436, renormalised to   74.00000
     Starting wfcs are   66 randomized atomic wfcs

     total cpu time spent up to now is       49.7 secs

     Self-consistent Calculation

     iteration #  1     ecut=    50.00 Ry     beta= 0.60
     Davidson diagonalization with overlap
     ethr =  1.00E-02,  avg # of iterations =  3.7

     total cpu time spent up to now is      175.1 secs

     total energy              =    -677.72466930 Ry
     Harris-Foulkes estimate   =    -706.09424257 Ry
     estimated scf accuracy    <      35.20755740 Ry

     iteration #  2     ecut=    50.00 Ry     beta= 0.60
     Davidson diagonalization with overlap
     ethr =  1.00E-02,  avg # of iterations =  7.4

     total cpu time spent up to now is      398.5 secs

     total energy              =    -670.89168815 Ry
     Harris-Foulkes estimate   =    -760.23067084 Ry
     estimated scf accuracy    <     349.46430283 Ry

     iteration #  3     ecut=    50.00 Ry     beta= 0.60
     Davidson diagonalization with overlap
     ethr =  1.00E-02,  avg # of iterations =  6.1

     total cpu time spent up to now is      583.2 secs

     total energy              =    -701.93437963 Ry
     Harris-Foulkes estimate   =    -704.88087002 Ry
     estimated scf accuracy    <      20.39581028 Ry

     iteration #  4     ecut=    50.00 Ry     beta= 0.60
     Davidson diagonalization with overlap
     ethr =  1.00E-02,  avg # of iterations =  3.8

     total cpu time spent up to now is      685.7 secs

     total energy              =    -701.90702739 Ry
     Harris-Foulkes estimate   =    -702.56200535 Ry
     estimated scf accuracy    <       6.68254530 Ry

     iteration #  5     ecut=    50.00 Ry     beta= 0.60
     Davidson diagonalization with overlap
     ethr =  9.03E-03,  avg # of iterations =  1.7

     total cpu time spent up to now is      769.9 secs

     total energy              =    -702.31746827 Ry
     Harris-Foulkes estimate   =    -702.29848452 Ry
     estimated scf accuracy    <       4.22856630 Ry

     iteration #  6     ecut=    50.00 Ry     beta= 0.60
     Davidson diagonalization with overlap
     ethr =  5.71E-03,  avg # of iterations =  1.4

     total cpu time spent up to now is      854.3 secs

     total energy              =    -702.41107886 Ry
     Harris-Foulkes estimate   =    -702.37078418 Ry
     estimated scf accuracy    <       4.09895249 Ry

     iteration #  7     ecut=    50.00 Ry     beta= 0.60
     Davidson diagonalization with overlap
     ethr =  5.54E-03,  avg # of iterations =  1.1

     total cpu time spent up to now is      936.6 secs

     total energy              =    -702.45808491 Ry
     Harris-Foulkes estimate   =    -702.43930305 Ry
     estimated scf accuracy    <       4.32822439 Ry

     iteration #  8     ecut=    50.00 Ry     beta= 0.60
     Davidson diagonalization with overlap
     ethr =  5.54E-03,  avg # of iterations =  1.0

     total cpu time spent up to now is     1018.5 secs

     total energy              =    -702.32455554 Ry
     Harris-Foulkes estimate   =    -702.47709428 Ry
     estimated scf accuracy    <       4.42568591 Ry

     iteration #  9     ecut=    50.00 Ry     beta= 0.60
     Davidson diagonalization with overlap
     ethr =  5.54E-03,  avg # of iterations =  1.0

     total cpu time spent up to now is     1100.1 secs

     total energy              =    -702.42489281 Ry
     Harris-Foulkes estimate   =    -702.37850532 Ry
     estimated scf accuracy    <       3.55386120 Ry

     iteration # 10     ecut=    50.00 Ry     beta= 0.60
     Davidson diagonalization with overlap
     ethr =  4.80E-03,  avg # of iterations =  4.3

     total cpu time spent up to now is     1204.4 secs

     total energy              =    -703.45636232 Ry
     Harris-Foulkes estimate   =    -702.74092311 Ry
     estimated scf accuracy    <       5.46302263 Ry

     iteration # 11     ecut=    50.00 Ry     beta= 0.60
     Davidson diagonalization with overlap
     ethr =  4.80E-03,  avg # of iterations =  5.3

     total cpu time spent up to now is     1358.8 secs

     total energy              =    -704.79836549 Ry
     Harris-Foulkes estimate   =    -709.18020953 Ry
     estimated scf accuracy    <     107.37470306 Ry

     iteration # 12     ecut=    50.00 Ry     beta= 0.60
     Davidson diagonalization with overlap
     ethr =  4.80E-03,  avg # of iterations =  2.0

     total cpu time spent up to now is     1444.8 secs

     total energy              =    -701.94604010 Ry
     Harris-Foulkes estimate   =    -705.08520817 Ry
     estimated scf accuracy    <      74.96508153 Ry

     iteration # 13     ecut=    50.00 Ry     beta= 0.60
     Davidson diagonalization with overlap
     ethr =  4.80E-03,  avg # of iterations =  3.6

     total cpu time spent up to now is     1547.2 secs

     total energy              =    -702.74346863 Ry
     Harris-Foulkes estimate   =    -702.78025197 Ry
     estimated scf accuracy    <      14.80549752 Ry

     iteration # 14     ecut=    50.00 Ry     beta= 0.60
     Davidson diagonalization with overlap
     ethr =  4.80E-03,  avg # of iterations =  1.2

     total cpu time spent up to now is     1629.0 secs

     total energy              =    -701.37684312 Ry
     Harris-Foulkes estimate   =    -702.77435885 Ry
     estimated scf accuracy    <      14.42373012 Ry

     iteration # 15     ecut=    50.00 Ry     beta= 0.60
     Davidson diagonalization with overlap
     ethr =  4.80E-03,  avg # of iterations =  5.7

     total cpu time spent up to now is     1758.7 secs

     total energy              =    -702.31918666 Ry
     Harris-Foulkes estimate   =    -702.40892348 Ry
     estimated scf accuracy    <       1.63484145 Ry

     iteration # 16     ecut=    50.00 Ry     beta= 0.60
     Davidson diagonalization with overlap
     ethr =  2.21E-03,  avg # of iterations =  1.5

     total cpu time spent up to now is     1843.3 secs

     total energy              =    -702.33701387 Ry
     Harris-Foulkes estimate   =    -702.37228455 Ry
     estimated scf accuracy    <       1.25652912 Ry

     iteration # 17     ecut=    50.00 Ry     beta= 0.60
     Davidson diagonalization with overlap
     ethr =  1.70E-03,  avg # of iterations =  1.1

     total cpu time spent up to now is     1925.9 secs

     total energy              =    -702.30914052 Ry
     Harris-Foulkes estimate   =    -702.35951092 Ry
     estimated scf accuracy    <       1.04416282 Ry

     iteration # 18     ecut=    50.00 Ry     beta= 0.60
     Davidson diagonalization with overlap
     ethr =  1.41E-03,  avg # of iterations =  1.0

     total cpu time spent up to now is     2008.0 secs

     total energy              =    -702.28764417 Ry
     Harris-Foulkes estimate   =    -702.36299214 Ry
     estimated scf accuracy    <       1.08095260 Ry

     iteration # 19     ecut=    50.00 Ry     beta= 0.60
     Davidson diagonalization with overlap
     ethr =  1.41E-03,  avg # of iterations =  1.1

     total cpu time spent up to now is     2089.5 secs

     total energy              =    -702.31245869 Ry
     Harris-Foulkes estimate   =    -702.32499672 Ry
     estimated scf accuracy    <       0.30590693 Ry

     iteration # 20     ecut=    50.00 Ry     beta= 0.60
     Davidson diagonalization with overlap
     ethr =  4.13E-04,  avg # of iterations =  3.8

     total cpu time spent up to now is     2188.5 secs

     total energy              =    -702.32062463 Ry
     Harris-Foulkes estimate   =    -702.32521231 Ry
     estimated scf accuracy    <       0.12780663 Ry

     iteration # 21     ecut=    50.00 Ry     beta= 0.60
     Davidson diagonalization with overlap
     ethr =  1.73E-04,  avg # of iterations =  6.6

     total cpu time spent up to now is     2310.0 secs

     total energy              =    -702.30316158 Ry
     Harris-Foulkes estimate   =    -702.32935840 Ry
     estimated scf accuracy    <       0.06476281 Ry

     iteration # 22     ecut=    50.00 Ry     beta= 0.60
     Davidson diagonalization with overlap
     ethr =  8.75E-05,  avg # of iterations =  6.6

     total cpu time spent up to now is     2469.2 secs

     total energy              =    -702.28730786 Ry
     Harris-Foulkes estimate   =    -702.34161572 Ry
     estimated scf accuracy    <       0.35891036 Ry

     iteration # 23     ecut=    50.00 Ry     beta= 0.60
     Davidson diagonalization with overlap
     ethr =  8.75E-05,  avg # of iterations =  6.9

     total cpu time spent up to now is     2624.6 secs

     total energy              =    -702.30337427 Ry
     Harris-Foulkes estimate   =    -702.33464893 Ry
     estimated scf accuracy    <       0.30594589 Ry

     iteration # 24     ecut=    50.00 Ry     beta= 0.60
     Davidson diagonalization with overlap
     ethr =  8.75E-05,  avg # of iterations =  4.8

     total cpu time spent up to now is     2730.9 secs

     total energy              =    -702.31986964 Ry
     Harris-Foulkes estimate   =    -702.32055498 Ry
     estimated scf accuracy    <       0.00975111 Ry

     iteration # 25     ecut=    50.00 Ry     beta= 0.60
     Davidson diagonalization with overlap
     c_bands:  1 eigenvalues not converged
     c_bands:  1 eigenvalues not converged
     c_bands:  1 eigenvalues not converged
     c_bands:  2 eigenvalues not converged
     c_bands:  1 eigenvalues not converged
     c_bands:  1 eigenvalues not converged
     c_bands:  1 eigenvalues not converged
     c_bands:  1 eigenvalues not converged
     c_bands:  1 eigenvalues not converged
     ethr =  1.32E-05,  avg # of iterations =  8.8

     total cpu time spent up to now is     2890.0 secs

     total energy              =    -702.32123550 Ry
     Harris-Foulkes estimate   =    -702.32203135 Ry
     estimated scf accuracy    <       0.00970722 Ry

     iteration # 26     ecut=    50.00 Ry     beta= 0.60
     Davidson diagonalization with overlap
     ethr =  1.31E-05,  avg # of iterations =  1.0

     total cpu time spent up to now is     2971.1 secs

     total energy              =    -702.32137226 Ry
     Harris-Foulkes estimate   =    -702.32149984 Ry
     estimated scf accuracy    <       0.00139155 Ry

     iteration # 27     ecut=    50.00 Ry     beta= 0.60
     Davidson diagonalization with overlap
     c_bands:  1 eigenvalues not converged
     c_bands:  1 eigenvalues not converged
     c_bands:  1 eigenvalues not converged
     c_bands:  1 eigenvalues not converged
     c_bands:  1 eigenvalues not converged
     ethr =  1.88E-06,  avg # of iterations =  7.3

     total cpu time spent up to now is     3114.1 secs

     total energy              =    -702.32156425 Ry
     Harris-Foulkes estimate   =    -702.32163205 Ry
     estimated scf accuracy    <       0.00053942 Ry

     iteration # 28     ecut=    50.00 Ry     beta= 0.60
     Davidson diagonalization with overlap
     ethr =  7.29E-07,  avg # of iterations =  1.1

     total cpu time spent up to now is     3195.3 secs

     total energy              =    -702.32157779 Ry
     Harris-Foulkes estimate   =    -702.32160254 Ry
     estimated scf accuracy    <       0.00026956 Ry

     iteration # 29     ecut=    50.00 Ry     beta= 0.60
     Davidson diagonalization with overlap
     ethr =  3.64E-07,  avg # of iterations =  2.2

     total cpu time spent up to now is     3281.8 secs

     total energy              =    -702.32159214 Ry
     Harris-Foulkes estimate   =    -702.32159771 Ry
     estimated scf accuracy    <       0.00005189 Ry

     iteration # 30     ecut=    50.00 Ry     beta= 0.60
     Davidson diagonalization with overlap
     ethr =  7.01E-08,  avg # of iterations =  4.8

     total cpu time spent up to now is     3405.7 secs

     total energy              =    -702.32160163 Ry
     Harris-Foulkes estimate   =    -702.32160380 Ry
     estimated scf accuracy    <       0.00001937 Ry

     iteration # 31     ecut=    50.00 Ry     beta= 0.60
     Davidson diagonalization with overlap
     ethr =  2.62E-08,  avg # of iterations =  1.2

     total cpu time spent up to now is     3487.3 secs

     total energy              =    -702.32160209 Ry
     Harris-Foulkes estimate   =    -702.32160248 Ry
     estimated scf accuracy    <       0.00000262 Ry

     iteration # 32     ecut=    50.00 Ry     beta= 0.60
     Davidson diagonalization with overlap
     ethr =  3.54E-09,  avg # of iterations =  4.8

     total cpu time spent up to now is     3616.4 secs

     total energy              =    -702.32160280 Ry
     Harris-Foulkes estimate   =    -702.32160302 Ry
     estimated scf accuracy    <       0.00000290 Ry

     iteration # 33     ecut=    50.00 Ry     beta= 0.60
     Davidson diagonalization with overlap
     ethr =  3.54E-09,  avg # of iterations =  1.0

     total cpu time spent up to now is     3697.3 secs

     total energy              =    -702.32160277 Ry
     Harris-Foulkes estimate   =    -702.32160294 Ry
     estimated scf accuracy    <       0.00000145 Ry

     iteration # 34     ecut=    50.00 Ry     beta= 0.60
     Davidson diagonalization with overlap
     ethr =  1.95E-09,  avg # of iterations =  1.5

     total cpu time spent up to now is     3780.2 secs

     total energy              =    -702.32160281 Ry
     Harris-Foulkes estimate   =    -702.32160284 Ry
     estimated scf accuracy    <       0.00000035 Ry

     iteration # 35     ecut=    50.00 Ry     beta= 0.60
     Davidson diagonalization with overlap
     ethr =  4.78E-10,  avg # of iterations =  4.4

     total cpu time spent up to now is     3899.6 secs

     total energy              =    -702.32160286 Ry
     Harris-Foulkes estimate   =    -702.32160287 Ry
     estimated scf accuracy    <       0.00000007 Ry

     iteration # 36     ecut=    50.00 Ry     beta= 0.60
     Davidson diagonalization with overlap
     ethr =  9.22E-11,  avg # of iterations =  3.5

     total cpu time spent up to now is     4001.5 secs

     total energy              =    -702.32160286 Ry
     Harris-Foulkes estimate   =    -702.32160287 Ry
     estimated scf accuracy    <       0.00000013 Ry

     iteration # 37     ecut=    50.00 Ry     beta= 0.60
     Davidson diagonalization with overlap
     ethr =  9.22E-11,  avg # of iterations =  1.0

     total cpu time spent up to now is     4083.7 secs

     total energy              =    -702.32160286 Ry
     Harris-Foulkes estimate   =    -702.32160286 Ry
     estimated scf accuracy    <          7.3E-09 Ry

     iteration # 38     ecut=    50.00 Ry     beta= 0.60
     Davidson diagonalization with overlap
     ethr =  9.91E-12,  avg # of iterations =  5.1

     total cpu time spent up to now is     4221.7 secs

     total energy              =    -702.32160286 Ry
     Harris-Foulkes estimate   =    -702.32160287 Ry
     estimated scf accuracy    <       0.00000015 Ry

     iteration # 39     ecut=    50.00 Ry     beta= 0.60
     Davidson diagonalization with overlap
     ethr =  9.91E-12,  avg # of iterations =  4.7

     total cpu time spent up to now is     4347.9 secs

     total energy              =    -702.32160286 Ry
     Harris-Foulkes estimate   =    -702.32160287 Ry
     estimated scf accuracy    <       0.00000001 Ry

     iteration # 40     ecut=    50.00 Ry     beta= 0.60
     Davidson diagonalization with overlap
     ethr =  9.91E-12,  avg # of iterations =  1.0

     total cpu time spent up to now is     4429.0 secs

     total energy              =    -702.32160287 Ry
     Harris-Foulkes estimate   =    -702.32160287 Ry
     estimated scf accuracy    <          2.5E-09 Ry

     iteration # 41     ecut=    50.00 Ry     beta= 0.60
     Davidson diagonalization with overlap
     ethr =  3.42E-12,  avg # of iterations =  3.9

     total cpu time spent up to now is     4541.6 secs

     total energy              =    -702.32160287 Ry
     Harris-Foulkes estimate   =    -702.32160287 Ry
     estimated scf accuracy    <          3.2E-10 Ry

     iteration # 42     ecut=    50.00 Ry     beta= 0.60
     Davidson diagonalization with overlap
     ethr =  4.38E-13,  avg # of iterations =  3.5

     total cpu time spent up to now is     4648.1 secs

     total energy              =    -702.32160287 Ry
     Harris-Foulkes estimate   =    -702.32160287 Ry
     estimated scf accuracy    <          2.2E-10 Ry

     iteration # 43     ecut=    50.00 Ry     beta= 0.60
     Davidson diagonalization with overlap
     ethr =  3.03E-13,  avg # of iterations =  1.9

     total cpu time spent up to now is     4734.7 secs

     End of self-consistent calculation

     Number of k-points >= 100: set verbosity='high' to print the bands.

     the Fermi energy is    11.4326 ev

!    total energy              =    -702.32160287 Ry
     Harris-Foulkes estimate   =    -702.32160287 Ry
     estimated scf accuracy    <          9.0E-11 Ry

     The total energy is the sum of the following terms:

     one-electron contribution =    -252.84186853 Ry
     hartree contribution      =     144.63495214 Ry
     xc contribution           =     -93.99595997 Ry
     ewald contribution        =    -500.11731374 Ry
     smearing contrib. (-TS)   =      -0.00141277 Ry

     convergence has been achieved in  43 iterations

     Forces acting on atoms (cartesian axes, Ry/au):

     atom    1 type  2   force =     0.00123484    0.00055203   -0.01039580
     atom    2 type  2   force =    -0.00358025    0.00392615   -0.00510512
     atom    3 type  2   force =     0.00357077   -0.00394291    0.00513080
     atom    4 type  2   force =    -0.00122339   -0.00053181    0.01036470
     atom    5 type  1   force =    -0.00311628    0.00562313    0.00715074
     atom    6 type  1   force =     0.00311430   -0.00562659   -0.00714533

     Total force =     0.022647     Total SCF correction =     0.000014


     Computing stress (Cartesian axis) and pressure

          total   stress  (Ry/bohr**3)                   (kbar)     P= -189.29
  -0.00128428  -0.00000192  -0.00000517       -188.92     -0.28     -0.76
  -0.00000192  -0.00129296  -0.00002042         -0.28   -190.20     -3.00
  -0.00000517  -0.00002042  -0.00128312         -0.76     -3.00   -188.75


     BFGS Geometry Optimization

     number of scf cycles    =   1
     number of bfgs steps    =   0

     enthalpy new            =    -702.3216028657 Ry

     new trust radius        =       0.1918020533 bohr
     new conv_thr            =            1.0E-10 Ry

     new unit-cell volume =    797.78379 a.u.^3 (   118.21936 Ang^3 )
     density =      5.29938 g/cm^3

CELL_PARAMETERS (alat=  1.88972599)
  -1.701274372  -1.700222855  -1.700512402
   1.702183671   1.703813297  -5.106036946
   5.105239226  -5.102970599  -1.699626480

ATOMIC_POSITIONS (angstrom)
Ti       3.404883735  -3.398702910  -6.810533764
Ti       1.700519103  -1.696584629  -5.106857394
Ti       5.107522527  -5.103195910  -5.100272324
Ti       3.403168615  -3.401058679  -3.396625051
Nb       1.700301211  -1.697514197  -1.697305734
Nb       5.107744262  -5.102259526  -8.509834374


     NEW-OLD atomic charge density approx. for the potential
     extrapolated charge   66.78578, renormalised to   74.00000

     total cpu time spent up to now is     4780.9 secs

     Self-consistent Calculation

     iteration #  1     ecut=    50.00 Ry     beta= 0.60
     Davidson diagonalization with overlap
     c_bands:  1 eigenvalues not converged
     c_bands:  3 eigenvalues not converged
     c_bands:  1 eigenvalues not converged
     c_bands:  2 eigenvalues not converged
     c_bands:  2 eigenvalues not converged
     c_bands:  2 eigenvalues not converged
     c_bands:  1 eigenvalues not converged
     c_bands:  3 eigenvalues not converged
     c_bands:  3 eigenvalues not converged
     c_bands:  1 eigenvalues not converged
     c_bands:  1 eigenvalues not converged
     c_bands:  1 eigenvalues not converged
     c_bands:  1 eigenvalues not converged
     c_bands:  1 eigenvalues not converged
     c_bands:  2 eigenvalues not converged
     c_bands:  2 eigenvalues not converged
     c_bands:  1 eigenvalues not converged
     c_bands:  1 eigenvalues not converged
     c_bands:  1 eigenvalues not converged
     c_bands:  1 eigenvalues not converged
     c_bands:  1 eigenvalues not converged
     c_bands:  1 eigenvalues not converged
     c_bands:  2 eigenvalues not converged
     c_bands:  1 eigenvalues not converged
     c_bands:  1 eigenvalues not converged
     c_bands:  1 eigenvalues not converged
     c_bands:  1 eigenvalues not converged
     c_bands:  1 eigenvalues not converged
     c_bands:  1 eigenvalues not converged
     c_bands:  3 eigenvalues not converged
     c_bands:  2 eigenvalues not converged
     c_bands:  1 eigenvalues not converged
     c_bands:  2 eigenvalues not converged
     c_bands:  1 eigenvalues not converged
     c_bands:  1 eigenvalues not converged
     c_bands:  2 eigenvalues not converged
     c_bands:  2 eigenvalues not converged
     c_bands:  1 eigenvalues not converged
     c_bands:  1 eigenvalues not converged
     c_bands:  1 eigenvalues not converged
     c_bands:  1 eigenvalues not converged
     c_bands:  2 eigenvalues not converged
     c_bands:  1 eigenvalues not converged
     c_bands:  4 eigenvalues not converged
     c_bands:  3 eigenvalues not converged
     c_bands:  3 eigenvalues not converged
     c_bands:  1 eigenvalues not converged
     c_bands:  1 eigenvalues not converged
     c_bands:  1 eigenvalues not converged
     c_bands:  1 eigenvalues not converged
     c_bands:  1 eigenvalues not converged
     c_bands:  2 eigenvalues not converged
     c_bands:  1 eigenvalues not converged
     c_bands:  1 eigenvalues not converged
     c_bands:  1 eigenvalues not converged
     c_bands:  1 eigenvalues not converged
     c_bands:  1 eigenvalues not converged
     c_bands:  2 eigenvalues not converged
     c_bands:  1 eigenvalues not converged
     c_bands:  1 eigenvalues not converged
     c_bands:  1 eigenvalues not converged
     c_bands:  1 eigenvalues not converged
     c_bands:  1 eigenvalues not converged
     c_bands:  1 eigenvalues not converged
     c_bands:  1 eigenvalues not converged
     c_bands:  1 eigenvalues not converged
     c_bands:  1 eigenvalues not converged
     c_bands:  1 eigenvalues not converged
     c_bands:  1 eigenvalues not converged
     c_bands:  2 eigenvalues not converged
     c_bands:  1 eigenvalues not converged
     c_bands:  1 eigenvalues not converged
     c_bands:  1 eigenvalues not converged
     c_bands:  2 eigenvalues not converged
     c_bands:  1 eigenvalues not converged
     c_bands:  1 eigenvalues not converged
     c_bands:  1 eigenvalues not converged
     c_bands:  1 eigenvalues not converged
     c_bands:  1 eigenvalues not converged
     c_bands:  1 eigenvalues not converged
     ethr =  1.00E-06,  avg # of iterations = 16.8

     total cpu time spent up to now is     5170.0 secs

     total energy              =    -678.29291010 Ry
     Harris-Foulkes estimate   =    -720.13091242 Ry
     estimated scf accuracy    <      26.34866339 Ry

     iteration #  2     ecut=    50.00 Ry     beta= 0.60
     Davidson diagonalization with overlap
     ethr =  1.00E-02,  avg # of iterations =  5.7

     total cpu time spent up to now is     5441.4 secs

     total energy              =    -696.52268246 Ry
     Harris-Foulkes estimate   =    -737.18966057 Ry
     estimated scf accuracy    <     131.04791260 Ry

     iteration #  3     ecut=    50.00 Ry     beta= 0.60
     Davidson diagonalization with overlap
     ethr =  1.00E-02,  avg # of iterations =  5.5

     total cpu time spent up to now is     5704.7 secs

     total energy              =    -702.34674624 Ry
     Harris-Foulkes estimate   =    -709.36884489 Ry
     estimated scf accuracy    <      30.63103555 Ry

     iteration #  4     ecut=    50.00 Ry     beta= 0.60
     Davidson diagonalization with overlap
     ethr =  1.00E-02,  avg # of iterations =  4.2

     total cpu time spent up to now is     5893.7 secs

     total energy              =    -703.29846280 Ry
     Harris-Foulkes estimate   =    -706.81534136 Ry
     estimated scf accuracy    <      24.50513862 Ry

     iteration #  5     ecut=    50.00 Ry     beta= 0.60
     Davidson diagonalization with overlap
     ethr =  1.00E-02,  avg # of iterations =  1.2

     total cpu time spent up to now is     6010.7 secs

     total energy              =    -703.10442887 Ry
     Harris-Foulkes estimate   =    -703.83040259 Ry
     estimated scf accuracy    <       8.98804089 Ry

     iteration #  6     ecut=    50.00 Ry     beta= 0.60
     Davidson diagonalization with overlap
     ethr =  1.00E-02,  avg # of iterations =  1.1

     total cpu time spent up to now is     6126.3 secs

     total energy              =    -702.37388370 Ry
     Harris-Foulkes estimate   =    -703.23124415 Ry
     estimated scf accuracy    <       5.99223994 Ry

     iteration #  7     ecut=    50.00 Ry     beta= 0.60
     Davidson diagonalization with overlap
     ethr =  8.10E-03,  avg # of iterations =  1.7

     total cpu time spent up to now is     6247.6 secs

     total energy              =    -702.39937675 Ry
     Harris-Foulkes estimate   =    -702.51959682 Ry
     estimated scf accuracy    <       2.83580025 Ry

     iteration #  8     ecut=    50.00 Ry     beta= 0.60
     Davidson diagonalization with overlap
     ethr =  3.83E-03,  avg # of iterations =  3.2

     total cpu time spent up to now is     6394.5 secs

     total energy              =    -702.73058943 Ry
     Harris-Foulkes estimate   =    -702.54560673 Ry
     estimated scf accuracy    <       1.53595150 Ry

     iteration #  9     ecut=    50.00 Ry     beta= 0.60
     Davidson diagonalization with overlap
     ethr =  2.08E-03,  avg # of iterations =  1.4

     total cpu time spent up to now is     6515.7 secs

     total energy              =    -702.71577655 Ry
     Harris-Foulkes estimate   =    -702.77629782 Ry
     estimated scf accuracy    <       2.51304275 Ry

     iteration # 10     ecut=    50.00 Ry     beta= 0.60
     Davidson diagonalization with overlap
     ethr =  2.08E-03,  avg # of iterations =  1.1

     total cpu time spent up to now is     6634.3 secs

     total energy              =    -701.90190776 Ry
     Harris-Foulkes estimate   =    -702.72867320 Ry
     estimated scf accuracy    <       2.23462004 Ry

     iteration # 11     ecut=    50.00 Ry     beta= 0.60
     Davidson diagonalization with overlap
     ethr =  2.08E-03,  avg # of iterations =  5.3

     total cpu time spent up to now is     6864.5 secs

     total energy              =    -702.29617144 Ry
     Harris-Foulkes estimate   =    -702.69662801 Ry
     estimated scf accuracy    <       6.52589244 Ry

     iteration # 12     ecut=    50.00 Ry     beta= 0.60
     Davidson diagonalization with overlap
     ethr =  2.08E-03,  avg # of iterations =  1.0

     total cpu time spent up to now is     6981.9 secs

     total energy              =    -702.34180351 Ry
     Harris-Foulkes estimate   =    -702.40366136 Ry
     estimated scf accuracy    <       1.39614399 Ry

     iteration # 13     ecut=    50.00 Ry     beta= 0.60
     Davidson diagonalization with overlap
     ethr =  1.89E-03,  avg # of iterations =  2.1

     total cpu time spent up to now is     7111.9 secs

     total energy              =    -702.36675777 Ry
     Harris-Foulkes estimate   =    -702.38488038 Ry
     estimated scf accuracy    <       0.50859904 Ry

     iteration # 14     ecut=    50.00 Ry     beta= 0.60
     Davidson diagonalization with overlap
     ethr =  6.87E-04,  avg # of iterations =  4.1

     total cpu time spent up to now is     7278.5 secs

     total energy              =    -702.40539070 Ry
     Harris-Foulkes estimate   =    -702.40553069 Ry
     estimated scf accuracy    <       0.03730455 Ry

     iteration # 15     ecut=    50.00 Ry     beta= 0.60
     Davidson diagonalization with overlap
     ethr =  5.04E-05,  avg # of iterations =  8.5

     total cpu time spent up to now is     7551.3 secs

     total energy              =    -702.40850289 Ry
     Harris-Foulkes estimate   =    -702.41411753 Ry
     estimated scf accuracy    <       0.05537317 Ry

     iteration # 16     ecut=    50.00 Ry     beta= 0.60
     Davidson diagonalization with overlap
     ethr =  5.04E-05,  avg # of iterations =  3.2

     total cpu time spent up to now is     7698.9 secs

     total energy              =    -702.40745800 Ry
     Harris-Foulkes estimate   =    -702.41518282 Ry
     estimated scf accuracy    <       0.04943828 Ry

     iteration # 17     ecut=    50.00 Ry     beta= 0.60
     Davidson diagonalization with overlap
     ethr =  5.04E-05,  avg # of iterations =  1.7

     total cpu time spent up to now is     7823.4 secs

     total energy              =    -702.41100762 Ry
     Harris-Foulkes estimate   =    -702.41113687 Ry
     estimated scf accuracy    <       0.00039864 Ry

     iteration # 18     ecut=    50.00 Ry     beta= 0.60
     Davidson diagonalization with overlap
     c_bands:  1 eigenvalues not converged
     c_bands:  1 eigenvalues not converged
     c_bands:  2 eigenvalues not converged
     c_bands:  3 eigenvalues not converged
     c_bands:  1 eigenvalues not converged
     ethr =  5.39E-07,  avg # of iterations =  6.8

     total cpu time spent up to now is     8118.4 secs

     total energy              =    -702.41200525 Ry
     Harris-Foulkes estimate   =    -702.41211267 Ry
     estimated scf accuracy    <       0.00547938 Ry

     iteration # 19     ecut=    50.00 Ry     beta= 0.60
     Davidson diagonalization with overlap
     c_bands:  1 eigenvalues not converged
     ethr =  5.39E-07,  avg # of iterations =  1.1

     total cpu time spent up to now is     8236.3 secs

     total energy              =    -702.41171801 Ry
     Harris-Foulkes estimate   =    -702.41203270 Ry
     estimated scf accuracy    <       0.00421925 Ry

     iteration # 20     ecut=    50.00 Ry     beta= 0.60
     Davidson diagonalization with overlap
     c_bands:  1 eigenvalues not converged
     ethr =  5.39E-07,  avg # of iterations =  4.1

     total cpu time spent up to now is     8414.3 secs

     total energy              =    -702.41177659 Ry
     Harris-Foulkes estimate   =    -702.41180788 Ry
     estimated scf accuracy    <       0.00083197 Ry

     iteration # 21     ecut=    50.00 Ry     beta= 0.60
     Davidson diagonalization with overlap
     ethr =  5.39E-07,  avg # of iterations =  1.0

     total cpu time spent up to now is     8529.6 secs

     total energy              =    -702.41172048 Ry
     Harris-Foulkes estimate   =    -702.41178349 Ry
     estimated scf accuracy    <       0.00064653 Ry

     iteration # 22     ecut=    50.00 Ry     beta= 0.60
     Davidson diagonalization with overlap
     ethr =  5.39E-07,  avg # of iterations =  2.3

     total cpu time spent up to now is     8657.8 secs

     total energy              =    -702.41173008 Ry
     Harris-Foulkes estimate   =    -702.41174453 Ry
     estimated scf accuracy    <       0.00018565 Ry

     iteration # 23     ecut=    50.00 Ry     beta= 0.60
     Davidson diagonalization with overlap
     ethr =  2.51E-07,  avg # of iterations =  3.6

     total cpu time spent up to now is     8815.2 secs

     total energy              =    -702.41174252 Ry
     Harris-Foulkes estimate   =    -702.41174437 Ry
     estimated scf accuracy    <       0.00001794 Ry

     iteration # 24     ecut=    50.00 Ry     beta= 0.60
     Davidson diagonalization with overlap
     ethr =  2.42E-08,  avg # of iterations =  5.0

     total cpu time spent up to now is     9017.3 secs

     total energy              =    -702.41174630 Ry
     Harris-Foulkes estimate   =    -702.41174803 Ry
     estimated scf accuracy    <       0.00001909 Ry

     iteration # 25     ecut=    50.00 Ry     beta= 0.60
     Davidson diagonalization with overlap
     ethr =  2.42E-08,  avg # of iterations =  1.0

     total cpu time spent up to now is     9132.8 secs

     total energy              =    -702.41174694 Ry
     Harris-Foulkes estimate   =    -702.41174707 Ry
     estimated scf accuracy    <       0.00000087 Ry

     iteration # 26     ecut=    50.00 Ry     beta= 0.60
     Davidson diagonalization with overlap
     ethr =  1.18E-09,  avg # of iterations =  4.8

     total cpu time spent up to now is     9339.2 secs

     total energy              =    -702.41174710 Ry
     Harris-Foulkes estimate   =    -702.41174737 Ry
     estimated scf accuracy    <       0.00000245 Ry

     iteration # 27     ecut=    50.00 Ry     beta= 0.60
     Davidson diagonalization with overlap
     ethr =  1.18E-09,  avg # of iterations =  2.7

     total cpu time spent up to now is     9476.1 secs

     total energy              =    -702.41174720 Ry
     Harris-Foulkes estimate   =    -702.41174725 Ry
     estimated scf accuracy    <       0.00000047 Ry

     iteration # 28     ecut=    50.00 Ry     beta= 0.60
     Davidson diagonalization with overlap
     ethr =  6.30E-10,  avg # of iterations =  3.1

     total cpu time spent up to now is     9623.1 secs

     total energy              =    -702.41174722 Ry
     Harris-Foulkes estimate   =    -702.41174723 Ry
     estimated scf accuracy    <       0.00000008 Ry

     iteration # 29     ecut=    50.00 Ry     beta= 0.60
     Davidson diagonalization with overlap
     ethr =  1.11E-10,  avg # of iterations =  4.0

     total cpu time spent up to now is     9806.3 secs

     total energy              =    -702.41174723 Ry
     Harris-Foulkes estimate   =    -702.41174725 Ry
     estimated scf accuracy    <       0.00000019 Ry

     iteration # 30     ecut=    50.00 Ry     beta= 0.60
     Davidson diagonalization with overlap
     ethr =  1.11E-10,  avg # of iterations =  1.2

     total cpu time spent up to now is     9926.3 secs

     total energy              =    -702.41174724 Ry
     Harris-Foulkes estimate   =    -702.41174724 Ry
     estimated scf accuracy    <       0.00000001 Ry

     iteration # 31     ecut=    50.00 Ry     beta= 0.60
     Davidson diagonalization with overlap
     ethr =  1.39E-11,  avg # of iterations =  4.3

     total cpu time spent up to now is    10117.2 secs

     total energy              =    -702.41174724 Ry
     Harris-Foulkes estimate   =    -702.41174724 Ry
     estimated scf accuracy    <       0.00000001 Ry

     iteration # 32     ecut=    50.00 Ry     beta= 0.60
     Davidson diagonalization with overlap
     ethr =  1.39E-11,  avg # of iterations =  1.0

     total cpu time spent up to now is    10223.4 secs

     total energy              =    -702.41174724 Ry
     Harris-Foulkes estimate   =    -702.41174724 Ry
     estimated scf accuracy    <          3.5E-09 Ry

     iteration # 33     ecut=    50.00 Ry     beta= 0.60
     Davidson diagonalization with overlap
     ethr =  4.78E-12,  avg # of iterations =  3.1

     total cpu time spent up to now is    10323.2 secs

     total energy              =    -702.41174724 Ry
     Harris-Foulkes estimate   =    -702.41174724 Ry
     estimated scf accuracy    <          7.0E-10 Ry

     iteration # 34     ecut=    50.00 Ry     beta= 0.60
     Davidson diagonalization with overlap
     ethr =  9.52E-13,  avg # of iterations =  3.4

     total cpu time spent up to now is    10426.2 secs

     total energy              =    -702.41174724 Ry
     Harris-Foulkes estimate   =    -702.41174724 Ry
     estimated scf accuracy    <          2.1E-10 Ry

     iteration # 35     ecut=    50.00 Ry     beta= 0.60
     Davidson diagonalization with overlap
     ethr =  2.81E-13,  avg # of iterations =  3.7

     total cpu time spent up to now is    10535.4 secs

     total energy              =    -702.41174724 Ry
     Harris-Foulkes estimate   =    -702.41174724 Ry
     estimated scf accuracy    <          1.3E-10 Ry

     iteration # 36     ecut=    50.00 Ry     beta= 0.60
     Davidson diagonalization with overlap
     ethr =  1.71E-13,  avg # of iterations =  1.7

     total cpu time spent up to now is    10619.9 secs

     End of self-consistent calculation

     Number of k-points >= 100: set verbosity='high' to print the bands.

     the Fermi energy is    12.8991 ev

!    total energy              =    -702.41174724 Ry
     Harris-Foulkes estimate   =    -702.41174724 Ry
     estimated scf accuracy    <          7.4E-11 Ry

     The total energy is the sum of the following terms:

     one-electron contribution =    -228.10609024 Ry
     hartree contribution      =     136.81965395 Ry
     xc contribution           =     -94.42522508 Ry
     ewald contribution        =    -516.69874203 Ry
     smearing contrib. (-TS)   =      -0.00134384 Ry

     convergence has been achieved in  36 iterations

     Forces acting on atoms (cartesian axes, Ry/au):

     atom    1 type  2   force =    -0.00029051   -0.00103638   -0.00907603
     atom    2 type  2   force =    -0.00296750    0.00172308   -0.00448013
     atom    3 type  2   force =     0.00296200   -0.00173052    0.00449176
     atom    4 type  2   force =     0.00029791    0.00104612    0.00906076
     atom    5 type  1   force =    -0.00007219    0.00439600    0.00588308
     atom    6 type  1   force =     0.00007030   -0.00439831   -0.00587944

     Total force =     0.018397     Total SCF correction =     0.000020


     Computing stress (Cartesian axis) and pressure

          total   stress  (Ry/bohr**3)                   (kbar)     P= -125.75
  -0.00085758   0.00000154  -0.00000335       -126.15      0.23     -0.49
   0.00000154  -0.00086229  -0.00001338          0.23   -126.85     -1.97
  -0.00000335  -0.00001338  -0.00084454         -0.49     -1.97   -124.24


     number of scf cycles    =   2
     number of bfgs steps    =   1

     enthalpy old            =    -702.3216028657 Ry
     enthalpy new            =    -702.4117472383 Ry

     CASE: enthalpy_new < enthalpy_old

     new trust radius        =       0.2830875279 bohr
     new conv_thr            =            1.0E-10 Ry

     new unit-cell volume =    684.74409 a.u.^3 (   101.46860 Ang^3 )
     density =      6.17422 g/cm^3

CELL_PARAMETERS (alat=  1.88972599)
  -1.616325144  -1.613763507  -1.615337181
   1.618604379   1.622823962  -4.857348963
   4.850875281  -4.845441719  -1.613087228

ATOMIC_POSITIONS (angstrom)
Ti       3.236097076  -3.223617731  -6.484627553
Ti       1.613383977  -1.605235636  -4.860379709
Ti       4.857097993  -4.844799392  -4.841844719
Ti       3.234409687  -3.226379797  -3.217655060
Nb       1.615732718  -1.605953301  -1.606349738
Nb       4.854756998  -4.844069429  -8.095893640


     NEW-OLD atomic charge density approx. for the potential
     extrapolated charge   62.44511, renormalised to   74.00000

     total cpu time spent up to now is    10666.6 secs

     Self-consistent Calculation

     iteration #  1     ecut=    50.00 Ry     beta= 0.60
     Davidson diagonalization with overlap
     c_bands:  1 eigenvalues not converged
     ethr =  1.00E-06,  avg # of iterations = 15.1

     total cpu time spent up to now is    11062.7 secs

     total energy              =    -647.82774475 Ry
     Harris-Foulkes estimate   =    -728.14730398 Ry
     estimated scf accuracy    <      60.79074437 Ry

     iteration #  2     ecut=    50.00 Ry     beta= 0.60
     Davidson diagonalization with overlap
     ethr =  1.00E-02,  avg # of iterations =  7.6

     total cpu time spent up to now is    11274.5 secs

     total energy              =    -682.29590184 Ry
     Harris-Foulkes estimate   =    -778.56581064 Ry
     estimated scf accuracy    <     308.91270325 Ry

     iteration #  3     ecut=    50.00 Ry     beta= 0.60
     Davidson diagonalization with overlap
     ethr =  1.00E-02,  avg # of iterations =  5.2

     total cpu time spent up to now is    11449.5 secs

     total energy              =    -705.63837400 Ry
     Harris-Foulkes estimate   =    -711.38557502 Ry
     estimated scf accuracy    <      24.77006193 Ry

     iteration #  4     ecut=    50.00 Ry     beta= 0.60
     Davidson diagonalization with overlap
     ethr =  1.00E-02,  avg # of iterations =  3.9

     total cpu time spent up to now is    11564.4 secs

     total energy              =    -704.83890136 Ry
     Harris-Foulkes estimate   =    -708.86289627 Ry
     estimated scf accuracy    <      37.21021817 Ry

     iteration #  5     ecut=    50.00 Ry     beta= 0.60
     Davidson diagonalization with overlap
     ethr =  1.00E-02,  avg # of iterations =  1.9

     total cpu time spent up to now is    11651.1 secs

     total energy              =    -703.15177674 Ry
     Harris-Foulkes estimate   =    -705.73139481 Ry
     estimated scf accuracy    <      13.94091170 Ry

     iteration #  6     ecut=    50.00 Ry     beta= 0.60
     Davidson diagonalization with overlap
     ethr =  1.00E-02,  avg # of iterations =  1.9

     total cpu time spent up to now is    11738.4 secs

     total energy              =    -702.94947913 Ry
     Harris-Foulkes estimate   =    -703.55256061 Ry
     estimated scf accuracy    <       5.80348815 Ry

     iteration #  7     ecut=    50.00 Ry     beta= 0.60
     Davidson diagonalization with overlap
     ethr =  7.84E-03,  avg # of iterations =  1.0

     total cpu time spent up to now is    11821.2 secs

     total energy              =    -702.77206646 Ry
     Harris-Foulkes estimate   =    -703.05586422 Ry
     estimated scf accuracy    <       4.06823225 Ry

     iteration #  8     ecut=    50.00 Ry     beta= 0.60
     Davidson diagonalization with overlap
     ethr =  5.50E-03,  avg # of iterations =  1.1

     total cpu time spent up to now is    11903.5 secs

     total energy              =    -702.58345431 Ry
     Harris-Foulkes estimate   =    -702.82804671 Ry
     estimated scf accuracy    <       3.20431229 Ry

     iteration #  9     ecut=    50.00 Ry     beta= 0.60
     Davidson diagonalization with overlap
     ethr =  4.33E-03,  avg # of iterations =  1.5

     total cpu time spent up to now is    11988.3 secs

     total energy              =    -702.55407207 Ry
     Harris-Foulkes estimate   =    -702.64054669 Ry
     estimated scf accuracy    <       2.07257445 Ry

     iteration # 10     ecut=    50.00 Ry     beta= 0.60
     Davidson diagonalization with overlap
     ethr =  2.80E-03,  avg # of iterations =  1.8

     total cpu time spent up to now is    12074.3 secs

     total energy              =    -701.83925470 Ry
     Harris-Foulkes estimate   =    -702.59137590 Ry
     estimated scf accuracy    <       1.59642239 Ry

     iteration # 11     ecut=    50.00 Ry     beta= 0.60
     Davidson diagonalization with overlap
     ethr =  2.16E-03,  avg # of iterations =  4.9

     total cpu time spent up to now is    12228.7 secs

     total energy              =    -703.18014989 Ry
     Harris-Foulkes estimate   =    -703.10668924 Ry
     estimated scf accuracy    <      12.90878428 Ry

     iteration # 12     ecut=    50.00 Ry     beta= 0.60
     Davidson diagonalization with overlap
     ethr =  2.16E-03,  avg # of iterations =  1.0

     total cpu time spent up to now is    12311.1 secs

     total energy              =    -703.54183671 Ry
     Harris-Foulkes estimate   =    -703.18466634 Ry
     estimated scf accuracy    <      14.24791666 Ry

     iteration # 13     ecut=    50.00 Ry     beta= 0.60
     Davidson diagonalization with overlap
     ethr =  2.16E-03,  avg # of iterations =  1.0

     total cpu time spent up to now is    12393.6 secs

     total energy              =    -703.67625616 Ry
     Harris-Foulkes estimate   =    -703.59023301 Ry
     estimated scf accuracy    <      21.07574992 Ry

     iteration # 14     ecut=    50.00 Ry     beta= 0.60
     Davidson diagonalization with overlap
     ethr =  2.16E-03,  avg # of iterations =  1.0

     total cpu time spent up to now is    12475.8 secs

     total energy              =    -703.35269548 Ry
     Harris-Foulkes estimate   =    -703.69787133 Ry
     estimated scf accuracy    <      23.03203379 Ry

     iteration # 15     ecut=    50.00 Ry     beta= 0.60
     Davidson diagonalization with overlap
     ethr =  2.16E-03,  avg # of iterations =  1.0

     total cpu time spent up to now is    12557.5 secs

     total energy              =    -703.88580588 Ry
     Harris-Foulkes estimate   =    -703.37837399 Ry
     estimated scf accuracy    <      18.01177973 Ry

     iteration # 16     ecut=    50.00 Ry     beta= 0.60
     Davidson diagonalization with overlap
     ethr =  2.16E-03,  avg # of iterations =  1.1

     total cpu time spent up to now is    12639.5 secs

     total energy              =    -703.81529263 Ry
     Harris-Foulkes estimate   =    -703.95177929 Ry
     estimated scf accuracy    <      28.16921596 Ry

     iteration # 17     ecut=    50.00 Ry     beta= 0.60
     Davidson diagonalization with overlap
     ethr =  2.16E-03,  avg # of iterations =  1.0

     total cpu time spent up to now is    12721.2 secs

     total energy              =    -701.00556104 Ry
     Harris-Foulkes estimate   =    -703.82701087 Ry
     estimated scf accuracy    <      26.77990950 Ry

     iteration # 18     ecut=    50.00 Ry     beta= 0.60
     Davidson diagonalization with overlap
     ethr =  2.16E-03,  avg # of iterations =  5.5

     total cpu time spent up to now is    12857.9 secs

     total energy              =    -702.41996572 Ry
     Harris-Foulkes estimate   =    -702.47616464 Ry
     estimated scf accuracy    <       0.49444958 Ry

     iteration # 19     ecut=    50.00 Ry     beta= 0.60
     Davidson diagonalization with overlap
     ethr =  6.68E-04,  avg # of iterations =  2.7

     total cpu time spent up to now is    12948.6 secs

     total energy              =    -702.40742306 Ry
     Harris-Foulkes estimate   =    -702.46557761 Ry
     estimated scf accuracy    <       0.26639778 Ry

     iteration # 20     ecut=    50.00 Ry     beta= 0.60
     Davidson diagonalization with overlap
     ethr =  3.60E-04,  avg # of iterations =  4.7

     total cpu time spent up to now is    13069.6 secs

     total energy              =    -702.40304097 Ry
     Harris-Foulkes estimate   =    -702.50196138 Ry
     estimated scf accuracy    <       0.76177059 Ry

     iteration # 21     ecut=    50.00 Ry     beta= 0.60
     Davidson diagonalization with overlap
     ethr =  3.60E-04,  avg # of iterations =  3.4

     total cpu time spent up to now is    13168.0 secs

     total energy              =    -702.44583253 Ry
     Harris-Foulkes estimate   =    -702.44903100 Ry
     estimated scf accuracy    <       0.02076624 Ry

     iteration # 22     ecut=    50.00 Ry     beta= 0.60
     Davidson diagonalization with overlap
     c_bands:  1 eigenvalues not converged
     ethr =  2.81E-05,  avg # of iterations =  7.9

     total cpu time spent up to now is    13331.7 secs

     total energy              =    -702.45150785 Ry
     Harris-Foulkes estimate   =    -702.45386120 Ry
     estimated scf accuracy    <       0.02097468 Ry

     iteration # 23     ecut=    50.00 Ry     beta= 0.60
     Davidson diagonalization with overlap
     ethr =  2.81E-05,  avg # of iterations =  1.0

     total cpu time spent up to now is    13413.4 secs

     total energy              =    -702.45221163 Ry
     Harris-Foulkes estimate   =    -702.45250731 Ry
     estimated scf accuracy    <       0.00230617 Ry

     iteration # 24     ecut=    50.00 Ry     beta= 0.60
     Davidson diagonalization with overlap
     c_bands:  1 eigenvalues not converged
     c_bands:  1 eigenvalues not converged
     c_bands:  1 eigenvalues not converged
     c_bands:  1 eigenvalues not converged
     c_bands:  1 eigenvalues not converged
     ethr =  3.12E-06,  avg # of iterations =  6.6

     total cpu time spent up to now is    13552.9 secs

     total energy              =    -702.45256753 Ry
     Harris-Foulkes estimate   =    -702.45271199 Ry
     estimated scf accuracy    <       0.00085038 Ry

     iteration # 25     ecut=    50.00 Ry     beta= 0.60
     Davidson diagonalization with overlap
     c_bands:  1 eigenvalues not converged
     c_bands:  1 eigenvalues not converged
     ethr =  1.15E-06,  avg # of iterations =  3.2

     total cpu time spent up to now is    13646.9 secs

     total energy              =    -702.45261553 Ry
     Harris-Foulkes estimate   =    -702.45271192 Ry
     estimated scf accuracy    <       0.00090786 Ry

     iteration # 26     ecut=    50.00 Ry     beta= 0.60
     Davidson diagonalization with overlap
     ethr =  1.15E-06,  avg # of iterations =  1.0

     total cpu time spent up to now is    13728.6 secs

     total energy              =    -702.45265879 Ry
     Harris-Foulkes estimate   =    -702.45267131 Ry
     estimated scf accuracy    <       0.00009061 Ry

     iteration # 27     ecut=    50.00 Ry     beta= 0.60
     Davidson diagonalization with overlap
     ethr =  1.22E-07,  avg # of iterations =  3.7

     total cpu time spent up to now is    13836.2 secs

     total energy              =    -702.45266815 Ry
     Harris-Foulkes estimate   =    -702.45267088 Ry
     estimated scf accuracy    <       0.00002360 Ry

     iteration # 28     ecut=    50.00 Ry     beta= 0.60
     Davidson diagonalization with overlap
     ethr =  3.19E-08,  avg # of iterations =  2.4

     total cpu time spent up to now is    13928.6 secs

     total energy              =    -702.45266990 Ry
     Harris-Foulkes estimate   =    -702.45267017 Ry
     estimated scf accuracy    <       0.00000168 Ry

     iteration # 29     ecut=    50.00 Ry     beta= 0.60
     Davidson diagonalization with overlap
     ethr =  2.27E-09,  avg # of iterations =  4.9

     total cpu time spent up to now is    14061.4 secs

     total energy              =    -702.45267039 Ry
     Harris-Foulkes estimate   =    -702.45267056 Ry
     estimated scf accuracy    <       0.00000087 Ry

     iteration # 30     ecut=    50.00 Ry     beta= 0.60
     Davidson diagonalization with overlap
     ethr =  1.18E-09,  avg # of iterations =  2.3

     total cpu time spent up to now is    14149.9 secs

     total energy              =    -702.45267043 Ry
     Harris-Foulkes estimate   =    -702.45267050 Ry
     estimated scf accuracy    <       0.00000045 Ry

     iteration # 31     ecut=    50.00 Ry     beta= 0.60
     Davidson diagonalization with overlap
     ethr =  6.08E-10,  avg # of iterations =  2.4

     total cpu time spent up to now is    14241.2 secs

     total energy              =    -702.45267047 Ry
     Harris-Foulkes estimate   =    -702.45267047 Ry
     estimated scf accuracy    <       0.00000002 Ry

     iteration # 32     ecut=    50.00 Ry     beta= 0.60
     Davidson diagonalization with overlap
     ethr =  2.82E-11,  avg # of iterations =  5.0

     total cpu time spent up to now is    14379.3 secs

     total energy              =    -702.45267048 Ry
     Harris-Foulkes estimate   =    -702.45267048 Ry
     estimated scf accuracy    <       0.00000007 Ry

     iteration # 33     ecut=    50.00 Ry     beta= 0.60
     Davidson diagonalization with overlap
     ethr =  2.82E-11,  avg # of iterations =  3.8

     total cpu time spent up to now is    14482.5 secs

     total energy              =    -702.45267048 Ry
     Harris-Foulkes estimate   =    -702.45267048 Ry
     estimated scf accuracy    <       0.00000003 Ry

     iteration # 34     ecut=    50.00 Ry     beta= 0.60
     Davidson diagonalization with overlap
     ethr =  2.82E-11,  avg # of iterations =  1.0

     total cpu time spent up to now is    14564.2 secs

     total energy              =    -702.45267048 Ry
     Harris-Foulkes estimate   =    -702.45267048 Ry
     estimated scf accuracy    <          3.3E-09 Ry

     iteration # 35     ecut=    50.00 Ry     beta= 0.60
     Davidson diagonalization with overlap
     ethr =  4.44E-12,  avg # of iterations =  4.1

     total cpu time spent up to now is    14683.8 secs

     total energy              =    -702.45267048 Ry
     Harris-Foulkes estimate   =    -702.45267048 Ry
     estimated scf accuracy    <          1.0E-09 Ry

     iteration # 36     ecut=    50.00 Ry     beta= 0.60
     Davidson diagonalization with overlap
     ethr =  1.40E-12,  avg # of iterations =  1.2

     total cpu time spent up to now is    14766.6 secs

     total energy              =    -702.45267048 Ry
     Harris-Foulkes estimate   =    -702.45267048 Ry
     estimated scf accuracy    <          3.5E-10 Ry

     iteration # 37     ecut=    50.00 Ry     beta= 0.60
     Davidson diagonalization with overlap
     ethr =  4.71E-13,  avg # of iterations =  3.8

     total cpu time spent up to now is    14878.2 secs

     total energy              =    -702.45267048 Ry
     Harris-Foulkes estimate   =    -702.45267048 Ry
     estimated scf accuracy    <          2.5E-10 Ry

     iteration # 38     ecut=    50.00 Ry     beta= 0.60
     Davidson diagonalization with overlap
     ethr =  3.33E-13,  avg # of iterations =  1.0

     total cpu time spent up to now is    14959.9 secs

     End of self-consistent calculation

     Number of k-points >= 100: set verbosity='high' to print the bands.

     the Fermi energy is    15.4614 ev

!    total energy              =    -702.45267048 Ry
     Harris-Foulkes estimate   =    -702.45267048 Ry
     estimated scf accuracy    <          4.8E-11 Ry

     The total energy is the sum of the following terms:

     one-electron contribution =    -188.60124817 Ry
     hartree contribution      =     124.97550723 Ry
     xc contribution           =     -95.21276289 Ry
     ewald contribution        =    -543.61274236 Ry
     smearing contrib. (-TS)   =      -0.00142429 Ry

     convergence has been achieved in  38 iterations

     Forces acting on atoms (cartesian axes, Ry/au):

     atom    1 type  2   force =    -0.00385448   -0.00527109   -0.00431345
     atom    2 type  2   force =    -0.00120863   -0.00433884   -0.00158083
     atom    3 type  2   force =     0.00121178    0.00434246    0.00157610
     atom    4 type  2   force =     0.00385197    0.00526745    0.00431990
     atom    5 type  1   force =     0.00759899    0.00103551    0.00134144
     atom    6 type  1   force =    -0.00759964   -0.00103550   -0.00134316

     Total force =     0.017010     Total SCF correction =     0.000020


     Computing stress (Cartesian axis) and pressure

          total   stress  (Ry/bohr**3)                   (kbar)     P=   40.57
   0.00026397   0.00000887   0.00000244         38.83      1.31      0.36
   0.00000887   0.00026734   0.00000941          1.31     39.33      1.38
   0.00000244   0.00000941   0.00029615          0.36      1.38     43.56


     number of scf cycles    =   3
     number of bfgs steps    =   2

     enthalpy old            =    -702.4117472383 Ry
     enthalpy new            =    -702.4526704805 Ry

     CASE: enthalpy_new < enthalpy_old

     new trust radius        =       0.0622118188 bohr
     new conv_thr            =            1.0E-10 Ry

     new unit-cell volume =    708.87839 a.u.^3 (   105.04494 Ang^3 )
     density =      5.96401 g/cm^3

CELL_PARAMETERS (alat=  1.88972599)
  -1.635150904  -1.633093412  -1.635141918
   1.636960455   1.640322998  -4.914457062
   4.905459687  -4.901093634  -1.633340409

ATOMIC_POSITIONS (angstrom)
Ti       3.270784813  -3.263957646  -6.562589186
Ti       1.631216891  -1.626741061  -4.918390297
Ti       4.911498113  -4.899630356  -4.900573083
Ti       3.271951384  -3.262380925  -3.256425178
Nb       1.636514786  -1.624996581  -1.626189110
Nb       4.906206189  -4.901364417  -8.192791213


     NEW-OLD atomic charge density approx. for the potential
     extrapolated charge   76.38301, renormalised to   74.00000

     total cpu time spent up to now is    15006.8 secs

     Self-consistent Calculation

     iteration #  1     ecut=    50.00 Ry     beta= 0.60
     Davidson diagonalization with overlap
     c_bands:  1 eigenvalues not converged
     c_bands:  1 eigenvalues not converged
     c_bands:  1 eigenvalues not converged
     c_bands:  1 eigenvalues not converged
     c_bands:  1 eigenvalues not converged
     c_bands:  1 eigenvalues not converged
     c_bands:  1 eigenvalues not converged
     c_bands:  1 eigenvalues not converged
     c_bands:  1 eigenvalues not converged
     c_bands:  1 eigenvalues not converged
     c_bands:  1 eigenvalues not converged
     c_bands:  1 eigenvalues not converged
     c_bands:  1 eigenvalues not converged
     c_bands:  1 eigenvalues not converged
     c_bands:  1 eigenvalues not converged
     c_bands:  1 eigenvalues not converged
     c_bands:  1 eigenvalues not converged
     c_bands:  1 eigenvalues not converged
     c_bands:  1 eigenvalues not converged
     ethr =  1.00E-06,  avg # of iterations = 12.7

     total cpu time spent up to now is    15301.8 secs

     total energy              =    -701.99443167 Ry
     Harris-Foulkes estimate   =    -697.96438153 Ry
     estimated scf accuracy    <       0.38266475 Ry

     iteration #  2     ecut=    50.00 Ry     beta= 0.60
     Davidson diagonalization with overlap
     ethr =  5.17E-04,  avg # of iterations =  7.6

     total cpu time spent up to now is    15492.9 secs

     total energy              =    -701.71241069 Ry
     Harris-Foulkes estimate   =    -703.15593576 Ry
     estimated scf accuracy    <      10.70897296 Ry

     iteration #  3     ecut=    50.00 Ry     beta= 0.60
     Davidson diagonalization with overlap
     ethr =  5.17E-04,  avg # of iterations =  6.0

     total cpu time spent up to now is    15656.9 secs

     total energy              =    -702.13376577 Ry
     Harris-Foulkes estimate   =    -702.80328208 Ry
     estimated scf accuracy    <       6.00946921 Ry

     iteration #  4     ecut=    50.00 Ry     beta= 0.60
     Davidson diagonalization with overlap
     ethr =  5.17E-04,  avg # of iterations =  6.5

     total cpu time spent up to now is    15807.9 secs

     total energy              =    -702.32731902 Ry
     Harris-Foulkes estimate   =    -702.63817510 Ry
     estimated scf accuracy    <       2.45469275 Ry

     iteration #  5     ecut=    50.00 Ry     beta= 0.60
     Davidson diagonalization with overlap
     ethr =  5.17E-04,  avg # of iterations =  4.6

     total cpu time spent up to now is    15928.7 secs

     total energy              =    -702.46681556 Ry
     Harris-Foulkes estimate   =    -702.47695457 Ry
     estimated scf accuracy    <       0.09284508 Ry

     iteration #  6     ecut=    50.00 Ry     beta= 0.60
     Davidson diagonalization with overlap
     ethr =  1.25E-04,  avg # of iterations =  3.7

     total cpu time spent up to now is    16025.6 secs

     total energy              =    -702.46039220 Ry
     Harris-Foulkes estimate   =    -702.46927402 Ry
     estimated scf accuracy    <       0.06459812 Ry

     iteration #  7     ecut=    50.00 Ry     beta= 0.60
     Davidson diagonalization with overlap
     ethr =  8.73E-05,  avg # of iterations =  1.0

     total cpu time spent up to now is    16108.4 secs

     total energy              =    -702.46044062 Ry
     Harris-Foulkes estimate   =    -702.46175252 Ry
     estimated scf accuracy    <       0.03768208 Ry

     iteration #  8     ecut=    50.00 Ry     beta= 0.60
     Davidson diagonalization with overlap
     ethr =  5.09E-05,  avg # of iterations =  1.1

     total cpu time spent up to now is    16190.5 secs

     total energy              =    -702.45579636 Ry
     Harris-Foulkes estimate   =    -702.46090884 Ry
     estimated scf accuracy    <       0.03361557 Ry

     iteration #  9     ecut=    50.00 Ry     beta= 0.60
     Davidson diagonalization with overlap
     ethr =  4.54E-05,  avg # of iterations =  1.2

     total cpu time spent up to now is    16273.1 secs

     total energy              =    -702.45642465 Ry
     Harris-Foulkes estimate   =    -702.45668181 Ry
     estimated scf accuracy    <       0.01576911 Ry

     iteration # 10     ecut=    50.00 Ry     beta= 0.60
     Davidson diagonalization with overlap
     c_bands:  1 eigenvalues not converged
     c_bands:  1 eigenvalues not converged
     c_bands:  2 eigenvalues not converged
     c_bands:  1 eigenvalues not converged
     c_bands:  1 eigenvalues not converged
     c_bands:  1 eigenvalues not converged
     c_bands:  1 eigenvalues not converged
     c_bands:  1 eigenvalues not converged
     c_bands:  1 eigenvalues not converged
     c_bands:  1 eigenvalues not converged
     c_bands:  1 eigenvalues not converged
     ethr =  2.13E-05,  avg # of iterations =  6.3

     total cpu time spent up to now is    16383.0 secs

     total energy              =    -702.45333373 Ry
     Harris-Foulkes estimate   =    -702.45689907 Ry
     estimated scf accuracy    <       0.01304793 Ry

     iteration # 11     ecut=    50.00 Ry     beta= 0.60
     Davidson diagonalization with overlap
     c_bands:  1 eigenvalues not converged
     c_bands:  1 eigenvalues not converged
     c_bands:  1 eigenvalues not converged
     c_bands:  1 eigenvalues not converged
     c_bands:  1 eigenvalues not converged
     c_bands:  1 eigenvalues not converged
     c_bands:  1 eigenvalues not converged
     c_bands:  1 eigenvalues not converged
     c_bands:  1 eigenvalues not converged
     c_bands:  1 eigenvalues not converged
     ethr =  1.76E-05,  avg # of iterations =  5.3

     total cpu time spent up to now is    16506.3 secs

     total energy              =    -702.45535230 Ry
     Harris-Foulkes estimate   =    -702.45543239 Ry
     estimated scf accuracy    <       0.00041163 Ry

     iteration # 12     ecut=    50.00 Ry     beta= 0.60
     Davidson diagonalization with overlap
     ethr =  5.56E-07,  avg # of iterations =  6.8

     total cpu time spent up to now is    16683.0 secs

     total energy              =    -702.45549133 Ry
     Harris-Foulkes estimate   =    -702.45563898 Ry
     estimated scf accuracy    <       0.00093613 Ry

     iteration # 13     ecut=    50.00 Ry     beta= 0.60
     Davidson diagonalization with overlap
     ethr =  5.56E-07,  avg # of iterations =  3.3

     total cpu time spent up to now is    16787.0 secs

     total energy              =    -702.45555568 Ry
     Harris-Foulkes estimate   =    -702.45556768 Ry
     estimated scf accuracy    <       0.00008401 Ry

     iteration # 14     ecut=    50.00 Ry     beta= 0.60
     Davidson diagonalization with overlap
     ethr =  1.14E-07,  avg # of iterations =  3.6

     total cpu time spent up to now is    16899.3 secs

     total energy              =    -702.45556746 Ry
     Harris-Foulkes estimate   =    -702.45557337 Ry
     estimated scf accuracy    <       0.00004680 Ry

     iteration # 15     ecut=    50.00 Ry     beta= 0.60
     Davidson diagonalization with overlap
     ethr =  6.32E-08,  avg # of iterations =  1.9

     total cpu time spent up to now is    16985.0 secs

     total energy              =    -702.45557003 Ry
     Harris-Foulkes estimate   =    -702.45557233 Ry
     estimated scf accuracy    <       0.00001618 Ry

     iteration # 16     ecut=    50.00 Ry     beta= 0.60
     Davidson diagonalization with overlap
     ethr =  2.19E-08,  avg # of iterations =  2.7

     total cpu time spent up to now is    17079.5 secs

     total energy              =    -702.45556945 Ry
     Harris-Foulkes estimate   =    -702.45557111 Ry
     estimated scf accuracy    <       0.00001030 Ry

     iteration # 17     ecut=    50.00 Ry     beta= 0.60
     Davidson diagonalization with overlap
     ethr =  1.39E-08,  avg # of iterations =  1.3

     total cpu time spent up to now is    17162.4 secs

     total energy              =    -702.45556912 Ry
     Harris-Foulkes estimate   =    -702.45557008 Ry
     estimated scf accuracy    <       0.00000605 Ry

     iteration # 18     ecut=    50.00 Ry     beta= 0.60
     Davidson diagonalization with overlap
     ethr =  8.17E-09,  avg # of iterations =  3.7

     total cpu time spent up to now is    17273.2 secs

     total energy              =    -702.45556807 Ry
     Harris-Foulkes estimate   =    -702.45557102 Ry
     estimated scf accuracy    <       0.00002566 Ry

     iteration # 19     ecut=    50.00 Ry     beta= 0.60
     Davidson diagonalization with overlap
     ethr =  8.17E-09,  avg # of iterations =  3.5

     total cpu time spent up to now is    17375.9 secs

     total energy              =    -702.45556930 Ry
     Harris-Foulkes estimate   =    -702.45556954 Ry
     estimated scf accuracy    <       0.00000172 Ry

     iteration # 20     ecut=    50.00 Ry     beta= 0.60
     Davidson diagonalization with overlap
     ethr =  2.32E-09,  avg # of iterations =  2.7

     total cpu time spent up to now is    17473.3 secs

     total energy              =    -702.45556945 Ry
     Harris-Foulkes estimate   =    -702.45556952 Ry
     estimated scf accuracy    <       0.00000040 Ry

     iteration # 21     ecut=    50.00 Ry     beta= 0.60
     Davidson diagonalization with overlap
     ethr =  5.43E-10,  avg # of iterations =  2.6

     total cpu time spent up to now is    17570.3 secs

     total energy              =    -702.45556949 Ry
     Harris-Foulkes estimate   =    -702.45556950 Ry
     estimated scf accuracy    <       0.00000006 Ry

     iteration # 22     ecut=    50.00 Ry     beta= 0.60
     Davidson diagonalization with overlap
     ethr =  7.86E-11,  avg # of iterations =  4.2

     total cpu time spent up to now is    17690.1 secs

     total energy              =    -702.45556949 Ry
     Harris-Foulkes estimate   =    -702.45556950 Ry
     estimated scf accuracy    <       0.00000006 Ry

     iteration # 23     ecut=    50.00 Ry     beta= 0.60
     Davidson diagonalization with overlap
     ethr =  7.58E-11,  avg # of iterations =  1.0

     total cpu time spent up to now is    17771.4 secs

     total energy              =    -702.45556950 Ry
     Harris-Foulkes estimate   =    -702.45556950 Ry
     estimated scf accuracy    <          9.2E-09 Ry

     iteration # 24     ecut=    50.00 Ry     beta= 0.60
     Davidson diagonalization with overlap
     ethr =  1.24E-11,  avg # of iterations =  4.0

     total cpu time spent up to now is    17889.1 secs

     total energy              =    -702.45556950 Ry
     Harris-Foulkes estimate   =    -702.45556950 Ry
     estimated scf accuracy    <       0.00000002 Ry

     iteration # 25     ecut=    50.00 Ry     beta= 0.60
     Davidson diagonalization with overlap
     ethr =  1.24E-11,  avg # of iterations =  2.8

     total cpu time spent up to now is    17981.9 secs

     total energy              =    -702.45556950 Ry
     Harris-Foulkes estimate   =    -702.45556950 Ry
     estimated scf accuracy    <          9.7E-10 Ry

     iteration # 26     ecut=    50.00 Ry     beta= 0.60
     Davidson diagonalization with overlap
     ethr =  1.31E-12,  avg # of iterations =  4.6

     total cpu time spent up to now is    18107.8 secs

     total energy              =    -702.45556950 Ry
     Harris-Foulkes estimate   =    -702.45556950 Ry
     estimated scf accuracy    <          4.4E-10 Ry

     iteration # 27     ecut=    50.00 Ry     beta= 0.60
     Davidson diagonalization with overlap
     ethr =  5.96E-13,  avg # of iterations =  1.0

     total cpu time spent up to now is    18189.1 secs

     total energy              =    -702.45556950 Ry
     Harris-Foulkes estimate   =    -702.45556950 Ry
     estimated scf accuracy    <          1.3E-10 Ry

     iteration # 28     ecut=    50.00 Ry     beta= 0.60
     Davidson diagonalization with overlap
     ethr =  1.79E-13,  avg # of iterations =  3.0

     total cpu time spent up to now is    18287.1 secs

     End of self-consistent calculation

     Number of k-points >= 100: set verbosity='high' to print the bands.

     the Fermi energy is    14.8481 ev

!    total energy              =    -702.45556950 Ry
     Harris-Foulkes estimate   =    -702.45556950 Ry
     estimated scf accuracy    <          2.2E-11 Ry

     The total energy is the sum of the following terms:

     one-electron contribution =    -197.65685951 Ry
     hartree contribution      =     127.62084308 Ry
     xc contribution           =     -95.02112640 Ry
     ewald contribution        =    -537.39711645 Ry
     smearing contrib. (-TS)   =      -0.00131021 Ry

     convergence has been achieved in  28 iterations

     Forces acting on atoms (cartesian axes, Ry/au):

     atom    1 type  2   force =    -0.00270038   -0.00420943   -0.00588937
     atom    2 type  2   force =    -0.00159777   -0.00255318   -0.00253073
     atom    3 type  2   force =     0.00159951    0.00255694    0.00252522
     atom    4 type  2   force =     0.00269978    0.00420530    0.00589640
     atom    5 type  1   force =     0.00490113    0.00205779    0.00269085
     atom    6 type  1   force =    -0.00490227   -0.00205742   -0.00269238

     Total force =     0.014879     Total SCF correction =     0.000012


     Computing stress (Cartesian axis) and pressure

          total   stress  (Ry/bohr**3)                   (kbar)     P=   -5.74
  -0.00004918   0.00000699   0.00000059         -7.24      1.03      0.09
   0.00000699  -0.00004709   0.00000209          1.03     -6.93      0.31
   0.00000059   0.00000209  -0.00002072          0.09      0.31     -3.05


     number of scf cycles    =   4
     number of bfgs steps    =   3

     enthalpy old            =    -702.4526704805 Ry
     enthalpy new            =    -702.4555694985 Ry

     CASE: enthalpy_new < enthalpy_old

     new trust radius        =       0.0081671903 bohr
     new conv_thr            =            1.0E-10 Ry

     new unit-cell volume =    706.12359 a.u.^3 (   104.63672 Ang^3 )
     density =      5.98728 g/cm^3

CELL_PARAMETERS (alat=  1.88972599)
  -1.632933442  -1.630993040  -1.633785932
   1.634665006   1.637953597  -4.910037416
   4.897182840  -4.893112299  -1.632043173

ATOMIC_POSITIONS (angstrom)
Ti       3.264003788  -3.260713776  -6.559570661
Ti       1.627679505  -1.625376188  -4.915252219
Ti       4.903909415  -4.890665812  -4.895245440
Ti       3.267605436  -3.255298497  -3.250973049
Nb       1.635923783  -1.621450163  -1.623566108
Nb       4.895669904  -4.894582808  -8.186946933


     NEW-OLD atomic charge density approx. for the potential
     extrapolated charge   73.72693, renormalised to   74.00000

     total cpu time spent up to now is    18340.2 secs

     Self-consistent Calculation

     iteration #  1     ecut=    50.00 Ry     beta= 0.60
     Davidson diagonalization with overlap
     ethr =  1.00E-06,  avg # of iterations =  4.6

     total cpu time spent up to now is    18562.5 secs

     total energy              =    -702.44828916 Ry
     Harris-Foulkes estimate   =    -702.97901418 Ry
     estimated scf accuracy    <       0.00655809 Ry

     iteration #  2     ecut=    50.00 Ry     beta= 0.60
     Davidson diagonalization with overlap
     c_bands:  1 eigenvalues not converged
     ethr =  8.86E-06,  avg # of iterations =  5.3

     total cpu time spent up to now is    18781.0 secs

     total energy              =    -702.44830655 Ry
     Harris-Foulkes estimate   =    -702.46624426 Ry
     estimated scf accuracy    <       0.09550374 Ry

     iteration #  3     ecut=    50.00 Ry     beta= 0.60
     Davidson diagonalization with overlap
     ethr =  8.86E-06,  avg # of iterations =  5.6

     total cpu time spent up to now is    18971.7 secs

     total energy              =    -702.45413739 Ry
     Harris-Foulkes estimate   =    -702.45857084 Ry
     estimated scf accuracy    <       0.02047724 Ry

     iteration #  4     ecut=    50.00 Ry     beta= 0.60
     Davidson diagonalization with overlap
     c_bands:  1 eigenvalues not converged
     ethr =  8.86E-06,  avg # of iterations =  6.7

     total cpu time spent up to now is    19148.3 secs

     total energy              =    -702.45466368 Ry
     Harris-Foulkes estimate   =    -702.45788614 Ry
     estimated scf accuracy    <       0.03966312 Ry

     iteration #  5     ecut=    50.00 Ry     beta= 0.60
     Davidson diagonalization with overlap
     ethr =  8.86E-06,  avg # of iterations =  3.7

     total cpu time spent up to now is    19275.6 secs

     total energy              =    -702.45596265 Ry
     Harris-Foulkes estimate   =    -702.45622060 Ry
     estimated scf accuracy    <       0.00244059 Ry

     iteration #  6     ecut=    50.00 Ry     beta= 0.60
     Davidson diagonalization with overlap
     c_bands:  1 eigenvalues not converged
     ethr =  3.30E-06,  avg # of iterations =  5.9

     total cpu time spent up to now is    19416.5 secs

     total energy              =    -702.45591066 Ry
     Harris-Foulkes estimate   =    -702.45607646 Ry
     estimated scf accuracy    <       0.00150473 Ry

     iteration #  7     ecut=    50.00 Ry     beta= 0.60
     Davidson diagonalization with overlap
     ethr =  2.03E-06,  avg # of iterations =  1.7

     total cpu time spent up to now is    19518.3 secs

     total energy              =    -702.45587458 Ry
     Harris-Foulkes estimate   =    -702.45594470 Ry
     estimated scf accuracy    <       0.00089149 Ry

     iteration #  8     ecut=    50.00 Ry     beta= 0.60
     Davidson diagonalization with overlap
     ethr =  1.20E-06,  avg # of iterations =  1.3

     total cpu time spent up to now is    19617.6 secs

     total energy              =    -702.45582426 Ry
     Harris-Foulkes estimate   =    -702.45589328 Ry
     estimated scf accuracy    <       0.00056614 Ry

     iteration #  9     ecut=    50.00 Ry     beta= 0.60
     Davidson diagonalization with overlap
     ethr =  7.65E-07,  avg # of iterations =  2.4

     total cpu time spent up to now is    19728.0 secs

     total energy              =    -702.45577695 Ry
     Harris-Foulkes estimate   =    -702.45584457 Ry
     estimated scf accuracy    <       0.00026052 Ry

     iteration # 10     ecut=    50.00 Ry     beta= 0.60
     Davidson diagonalization with overlap
     ethr =  3.52E-07,  avg # of iterations =  4.3

     total cpu time spent up to now is    19875.1 secs

     total energy              =    -702.45582731 Ry
     Harris-Foulkes estimate   =    -702.45582752 Ry
     estimated scf accuracy    <       0.00001976 Ry

     iteration # 11     ecut=    50.00 Ry     beta= 0.60
     Davidson diagonalization with overlap
     ethr =  2.67E-08,  avg # of iterations =  4.0

     total cpu time spent up to now is    20020.4 secs

     total energy              =    -702.45582798 Ry
     Harris-Foulkes estimate   =    -702.45583068 Ry
     estimated scf accuracy    <       0.00003002 Ry

[...]
     c_bands:  2 eigenvalues not converged
     c_bands:  2 eigenvalues not converged
     c_bands:  2 eigenvalues not converged
     c_bands:  2 eigenvalues not converged
     c_bands:  1 eigenvalues not converged
     c_bands:  2 eigenvalues not converged
     c_bands:  1 eigenvalues not converged
     c_bands:  1 eigenvalues not converged
     c_bands:  1 eigenvalues not converged
     c_bands:  1 eigenvalues not converged
     c_bands:  2 eigenvalues not converged
     c_bands:  1 eigenvalues not converged
     c_bands:  1 eigenvalues not converged
     c_bands:  2 eigenvalues not converged
     c_bands:  1 eigenvalues not converged
     c_bands:  1 eigenvalues not converged
     c_bands:  2 eigenvalues not converged
     c_bands:  1 eigenvalues not converged
     c_bands:  1 eigenvalues not converged
     c_bands:  1 eigenvalues not converged
     c_bands:  2 eigenvalues not converged
     c_bands:  2 eigenvalues not converged
     c_bands:  2 eigenvalues not converged
     c_bands:  1 eigenvalues not converged
     c_bands:  1 eigenvalues not converged
     c_bands:  1 eigenvalues not converged
     c_bands:  1 eigenvalues not converged
     c_bands:  1 eigenvalues not converged
     c_bands:  2 eigenvalues not converged
     c_bands:  2 eigenvalues not converged
     c_bands:  2 eigenvalues not converged
     c_bands:  1 eigenvalues not converged
     c_bands:  2 eigenvalues not converged
     c_bands:  2 eigenvalues not converged
     c_bands:  2 eigenvalues not converged
     c_bands:  1 eigenvalues not converged
     c_bands:  2 eigenvalues not converged
     c_bands:  2 eigenvalues not converged
     c_bands:  2 eigenvalues not converged
     c_bands:  2 eigenvalues not converged
     c_bands:  2 eigenvalues not converged
     c_bands:  2 eigenvalues not converged
     c_bands:  1 eigenvalues not converged
     c_bands:  2 eigenvalues not converged
     c_bands:  2 eigenvalues not converged
     c_bands:  2 eigenvalues not converged
     c_bands:  2 eigenvalues not converged
     c_bands:  2 eigenvalues not converged
     c_bands:  2 eigenvalues not converged
     c_bands:  1 eigenvalues not converged
     c_bands:  1 eigenvalues not converged
     c_bands:  1 eigenvalues not converged
     c_bands:  2 eigenvalues not converged
     c_bands:  1 eigenvalues not converged
     c_bands:  2 eigenvalues not converged
     c_bands:  2 eigenvalues not converged
     c_bands:  1 eigenvalues not converged
     c_bands:  1 eigenvalues not converged
     c_bands:  2 eigenvalues not converged
     c_bands:  2 eigenvalues not converged
     c_bands:  2 eigenvalues not converged
     c_bands:  2 eigenvalues not converged
     c_bands:  1 eigenvalues not converged
     c_bands:  3 eigenvalues not converged
     c_bands:  2 eigenvalues not converged
     c_bands:  1 eigenvalues not converged
     c_bands:  3 eigenvalues not converged
     c_bands:  2 eigenvalues not converged
     c_bands:  3 eigenvalues not converged
     c_bands:  2 eigenvalues not converged
     c_bands:  1 eigenvalues not converged
     c_bands:  2 eigenvalues not converged
     c_bands:  2 eigenvalues not converged
     c_bands:  1 eigenvalues not converged
     c_bands:  2 eigenvalues not converged
     c_bands:  1 eigenvalues not converged
     c_bands:  1 eigenvalues not converged
     c_bands:  1 eigenvalues not converged
     c_bands:  1 eigenvalues not converged
     ethr =  1.00E-06,  avg # of iterations = 19.1

     total cpu time spent up to now is   117019.6 secs

     total energy              =    -680.96955706 Ry
     Harris-Foulkes estimate   =    -705.88501046 Ry
     estimated scf accuracy    <      30.97898091 Ry

     iteration #  2     ecut=    50.00 Ry     beta= 0.60
     Davidson diagonalization with overlap
     ethr =  1.00E-02,  avg # of iterations =  6.7

     total cpu time spent up to now is   117175.3 secs

     total energy              =    -667.55165717 Ry
     Harris-Foulkes estimate   =    -750.76422071 Ry
     estimated scf accuracy    <     336.99700686 Ry

     iteration #  3     ecut=    50.00 Ry     beta= 0.60
     Davidson diagonalization with overlap
     ethr =  1.00E-02,  avg # of iterations =  5.3

     total cpu time spent up to now is   117312.3 secs

     total energy              =    -701.55119344 Ry
     Harris-Foulkes estimate   =    -704.13261355 Ry
     estimated scf accuracy    <      18.01249943 Ry

     iteration #  4     ecut=    50.00 Ry     beta= 0.60
     Davidson diagonalization with overlap
     ethr =  1.00E-02,  avg # of iterations =  3.1

     total cpu time spent up to now is   117387.5 secs

     total energy              =    -702.08462879 Ry
     Harris-Foulkes estimate   =    -703.19673468 Ry
     estimated scf accuracy    <      13.99916341 Ry

     iteration #  5     ecut=    50.00 Ry     beta= 0.60
     Davidson diagonalization with overlap
     ethr =  1.00E-02,  avg # of iterations =  1.4

     total cpu time spent up to now is   117451.0 secs

     total energy              =    -701.81557269 Ry
     Harris-Foulkes estimate   =    -702.37663378 Ry
     estimated scf accuracy    <       4.44074188 Ry

     iteration #  6     ecut=    50.00 Ry     beta= 0.60
     Davidson diagonalization with overlap
     ethr =  6.00E-03,  avg # of iterations =  5.0

     total cpu time spent up to now is   117553.3 secs

     total energy              =    -702.07874014 Ry
     Harris-Foulkes estimate   =    -702.73260153 Ry
     estimated scf accuracy    <       6.05632487 Ry

     iteration #  7     ecut=    50.00 Ry     beta= 0.60
     Davidson diagonalization with overlap
     ethr =  6.00E-03,  avg # of iterations =  1.0

     total cpu time spent up to now is   117615.0 secs

     total energy              =    -702.38568272 Ry
     Harris-Foulkes estimate   =    -702.40299620 Ry
     estimated scf accuracy    <       0.06886604 Ry

     iteration #  8     ecut=    50.00 Ry     beta= 0.60
     Davidson diagonalization with overlap
     ethr =  9.31E-05,  avg # of iterations =  6.3

     total cpu time spent up to now is   117748.7 secs

     total energy              =    -702.47811367 Ry
     Harris-Foulkes estimate   =    -702.47959727 Ry
     estimated scf accuracy    <       0.22818479 Ry

     iteration #  9     ecut=    50.00 Ry     beta= 0.60
     Davidson diagonalization with overlap
     ethr =  9.31E-05,  avg # of iterations =  3.8

     total cpu time spent up to now is   117831.6 secs

     total energy              =    -702.48491271 Ry
     Harris-Foulkes estimate   =    -702.49554372 Ry
     estimated scf accuracy    <       0.66321227 Ry

     iteration # 10     ecut=    50.00 Ry     beta= 0.60
     Davidson diagonalization with overlap
     ethr =  9.31E-05,  avg # of iterations =  1.1

     total cpu time spent up to now is   117893.6 secs

     total energy              =    -702.44871239 Ry
     Harris-Foulkes estimate   =    -702.49049651 Ry
     estimated scf accuracy    <       0.57806262 Ry

     iteration # 11     ecut=    50.00 Ry     beta= 0.60
     Davidson diagonalization with overlap
     ethr =  9.31E-05,  avg # of iterations =  3.6

     total cpu time spent up to now is   117974.5 secs

     total energy              =    -702.46206665 Ry
     Harris-Foulkes estimate   =    -702.46331913 Ry
     estimated scf accuracy    <       0.05550115 Ry

     iteration # 12     ecut=    50.00 Ry     beta= 0.60
     Davidson diagonalization with overlap
     ethr =  7.50E-05,  avg # of iterations =  1.2

     total cpu time spent up to now is   118037.0 secs

     total energy              =    -702.46157050 Ry
     Harris-Foulkes estimate   =    -702.46302280 Ry
     estimated scf accuracy    <       0.04639863 Ry

     iteration # 13     ecut=    50.00 Ry     beta= 0.60
     Davidson diagonalization with overlap
     ethr =  6.27E-05,  avg # of iterations =  1.0

     total cpu time spent up to now is   118098.6 secs

     total energy              =    -702.46028557 Ry
     Harris-Foulkes estimate   =    -702.46215708 Ry
     estimated scf accuracy    <       0.03045833 Ry

     iteration # 14     ecut=    50.00 Ry     beta= 0.60
     Davidson diagonalization with overlap
     ethr =  4.12E-05,  avg # of iterations =  1.7

     total cpu time spent up to now is   118162.9 secs

     total energy              =    -702.46026283 Ry
     Harris-Foulkes estimate   =    -702.46105977 Ry
     estimated scf accuracy    <       0.00689952 Ry

     iteration # 15     ecut=    50.00 Ry     beta= 0.60
     Davidson diagonalization with overlap
     ethr =  9.32E-06,  avg # of iterations =  6.7

     total cpu time spent up to now is   118281.9 secs

     total energy              =    -702.46157372 Ry
     Harris-Foulkes estimate   =    -702.46185849 Ry
     estimated scf accuracy    <       0.00425308 Ry

     iteration # 16     ecut=    50.00 Ry     beta= 0.60
     Davidson diagonalization with overlap
     ethr =  5.75E-06,  avg # of iterations =  1.0

     total cpu time spent up to now is   118343.6 secs

     total energy              =    -702.46152729 Ry
     Harris-Foulkes estimate   =    -702.46165162 Ry
     estimated scf accuracy    <       0.00160992 Ry

     iteration # 17     ecut=    50.00 Ry     beta= 0.60
     Davidson diagonalization with overlap
     ethr =  2.18E-06,  avg # of iterations =  2.8

     total cpu time spent up to now is   118414.8 secs

     total energy              =    -702.46159271 Ry
     Harris-Foulkes estimate   =    -702.46160643 Ry
     estimated scf accuracy    <       0.00009791 Ry

     iteration # 18     ecut=    50.00 Ry     beta= 0.60
     Davidson diagonalization with overlap
     ethr =  1.32E-07,  avg # of iterations =  4.7

     total cpu time spent up to now is   118514.2 secs

     total energy              =    -702.46161249 Ry
     Harris-Foulkes estimate   =    -702.46162694 Ry
     estimated scf accuracy    <       0.00008274 Ry

     iteration # 19     ecut=    50.00 Ry     beta= 0.60
     Davidson diagonalization with overlap
     ethr =  1.12E-07,  avg # of iterations =  2.0

     total cpu time spent up to now is   118580.0 secs

     total energy              =    -702.46161781 Ry
     Harris-Foulkes estimate   =    -702.46162108 Ry
     estimated scf accuracy    <       0.00002767 Ry

     iteration # 20     ecut=    50.00 Ry     beta= 0.60
     Davidson diagonalization with overlap
     ethr =  3.74E-08,  avg # of iterations =  3.3

     total cpu time spent up to now is   118659.2 secs

     total energy              =    -702.46162000 Ry
     Harris-Foulkes estimate   =    -702.46162144 Ry
     estimated scf accuracy    <       0.00001811 Ry

     iteration # 21     ecut=    50.00 Ry     beta= 0.60
     Davidson diagonalization with overlap
     ethr =  2.45E-08,  avg # of iterations =  1.0

     total cpu time spent up to now is   118720.9 secs

     total energy              =    -702.46162022 Ry
     Harris-Foulkes estimate   =    -702.46162066 Ry
     estimated scf accuracy    <       0.00000431 Ry

     iteration # 22     ecut=    50.00 Ry     beta= 0.60
     Davidson diagonalization with overlap
     ethr =  5.82E-09,  avg # of iterations =  3.5

     total cpu time spent up to now is   118801.9 secs

     total energy              =    -702.46162060 Ry
     Harris-Foulkes estimate   =    -702.46162070 Ry
     estimated scf accuracy    <       0.00000045 Ry

     iteration # 23     ecut=    50.00 Ry     beta= 0.60
     Davidson diagonalization with overlap
     ethr =  6.12E-10,  avg # of iterations =  3.9

     total cpu time spent up to now is   118893.0 secs

     total energy              =    -702.46162068 Ry
     Harris-Foulkes estimate   =    -702.46162072 Ry
     estimated scf accuracy    <       0.00000029 Ry

     iteration # 24     ecut=    50.00 Ry     beta= 0.60
     Davidson diagonalization with overlap
     ethr =  3.86E-10,  avg # of iterations =  1.7

     total cpu time spent up to now is   118957.6 secs

     total energy              =    -702.46162070 Ry
     Harris-Foulkes estimate   =    -702.46162071 Ry
     estimated scf accuracy    <       0.00000006 Ry

     iteration # 25     ecut=    50.00 Ry     beta= 0.60
     Davidson diagonalization with overlap
     ethr =  8.17E-11,  avg # of iterations =  3.8

     total cpu time spent up to now is   119045.5 secs

     total energy              =    -702.46162071 Ry
     Harris-Foulkes estimate   =    -702.46162071 Ry
     estimated scf accuracy    <       0.00000001 Ry

     iteration # 26     ecut=    50.00 Ry     beta= 0.60
     Davidson diagonalization with overlap
     ethr =  1.52E-11,  avg # of iterations =  2.2

     total cpu time spent up to now is   119117.3 secs

     total energy              =    -702.46162071 Ry
     Harris-Foulkes estimate   =    -702.46162071 Ry
     estimated scf accuracy    <          4.4E-09 Ry

     iteration # 27     ecut=    50.00 Ry     beta= 0.60
     Davidson diagonalization with overlap
     ethr =  5.99E-12,  avg # of iterations =  3.8

     total cpu time spent up to now is   119199.3 secs

     total energy              =    -702.46162071 Ry
     Harris-Foulkes estimate   =    -702.46162071 Ry
     estimated scf accuracy    <          1.7E-09 Ry

     iteration # 28     ecut=    50.00 Ry     beta= 0.60
     Davidson diagonalization with overlap
     ethr =  2.25E-12,  avg # of iterations =  1.9

     total cpu time spent up to now is   119265.2 secs

     total energy              =    -702.46162071 Ry
     Harris-Foulkes estimate   =    -702.46162071 Ry
     estimated scf accuracy    <          6.1E-10 Ry

     iteration # 29     ecut=    50.00 Ry     beta= 0.60
     Davidson diagonalization with overlap
     ethr =  8.19E-13,  avg # of iterations =  3.2

     total cpu time spent up to now is   119341.9 secs

     total energy              =    -702.46162071 Ry
     Harris-Foulkes estimate   =    -702.46162071 Ry
     estimated scf accuracy    <          3.1E-11 Ry

     iteration # 30     ecut=    50.00 Ry     beta= 0.60
     Davidson diagonalization with overlap
     ethr =  1.00E-13,  avg # of iterations =  3.9

     total cpu time spent up to now is   119430.9 secs

     total energy              =    -702.46162071 Ry
     Harris-Foulkes estimate   =    -702.46162071 Ry
     estimated scf accuracy    <          7.2E-11 Ry

     iteration # 31     ecut=    50.00 Ry     beta= 0.60
     Davidson diagonalization with overlap
     ethr =  1.00E-13,  avg # of iterations =  1.0

     total cpu time spent up to now is   119492.5 secs

     total energy              =    -702.46162071 Ry
     Harris-Foulkes estimate   =    -702.46162071 Ry
     estimated scf accuracy    <          9.0E-12 Ry

     iteration # 32     ecut=    50.00 Ry     beta= 0.60
     Davidson diagonalization with overlap
     ethr =  1.00E-13,  avg # of iterations =  1.0

     total cpu time spent up to now is   119554.3 secs

     total energy              =    -702.46162071 Ry
     Harris-Foulkes estimate   =    -702.46162071 Ry
     estimated scf accuracy    <          3.1E-12 Ry

     iteration # 33     ecut=    50.00 Ry     beta= 0.60
     Davidson diagonalization with overlap
     ethr =  1.00E-13,  avg # of iterations =  1.0

     total cpu time spent up to now is   119615.9 secs

     total energy              =    -702.46162071 Ry
     Harris-Foulkes estimate   =    -702.46162071 Ry
     estimated scf accuracy    <          2.0E-12 Ry

     iteration # 34     ecut=    50.00 Ry     beta= 0.60
     Davidson diagonalization with overlap
     ethr =  1.00E-13,  avg # of iterations =  1.0

     total cpu time spent up to now is   119677.5 secs

     End of self-consistent calculation

     Number of k-points >= 100: set verbosity='high' to print the bands.

     the Fermi energy is    14.8632 ev

!    total energy              =    -702.46162071 Ry
     Harris-Foulkes estimate   =    -702.46162071 Ry
     estimated scf accuracy    <          9.6E-13 Ry

     The total energy is the sum of the following terms:

     one-electron contribution =    -198.24980456 Ry
     hartree contribution      =     127.92523262 Ry
     xc contribution           =     -95.03939292 Ry
     ewald contribution        =    -537.09826103 Ry
     smearing contrib. (-TS)   =       0.00060518 Ry

     convergence has been achieved in  34 iterations

     Forces acting on atoms (cartesian axes, Ry/au):

     atom    1 type  2   force =    -0.00000652    0.00000625    0.00000820
     atom    2 type  2   force =     0.00001666   -0.00003397   -0.00002372
     atom    3 type  2   force =    -0.00003518    0.00001324    0.00003353
     atom    4 type  2   force =     0.00002794    0.00001374   -0.00000500
     atom    5 type  1   force =    -0.00000870   -0.00000089   -0.00000673
     atom    6 type  1   force =     0.00000580    0.00000163   -0.00000629

     Total force =     0.000077     Total SCF correction =     0.000002


     Computing stress (Cartesian axis) and pressure

          total   stress  (Ry/bohr**3)                   (kbar)     P=   -0.48
  -0.00000262  -0.00000015  -0.00000041         -0.39     -0.02     -0.06
  -0.00000015  -0.00000268  -0.00000040         -0.02     -0.39     -0.06
  -0.00000041  -0.00000040  -0.00000439         -0.06     -0.06     -0.65

 
     init_run     :     82.65s CPU     84.58s WALL (       2 calls)
     electrons    : 115569.85s CPU 117337.66s WALL (      45 calls)
     update_pot   :     96.49s CPU     96.73s WALL (      43 calls)
     forces       :    551.32s CPU    559.21s WALL (      45 calls)
     stress       :   1585.23s CPU   1606.77s WALL (      45 calls)

     Called by init_run:
     wfcinit      :     78.76s CPU     80.52s WALL (       2 calls)
     potinit      :      1.22s CPU      1.24s WALL (       2 calls)
     hinit0       :      2.18s CPU      2.19s WALL (       2 calls)

     Called by electrons:
     c_bands      : 101300.91s CPU 102598.24s WALL (     947 calls)
     sum_band     :  13882.88s CPU  14210.23s WALL (     947 calls)
     v_of_rho     :     65.77s CPU     66.22s WALL (     976 calls)
     newd         :    322.26s CPU    456.83s WALL (     976 calls)
     mix_rho      :      9.22s CPU      9.28s WALL (     947 calls)

     Called by c_bands:
     init_us_2    :   1896.98s CPU   1904.46s WALL ( 1513332 calls)
     cegterg      :  91350.73s CPU  92485.08s WALL (  721614 calls)

     Called by sum_band:
     sum_band:bec :     40.84s CPU     39.86s WALL (  721614 calls)
     addusdens    :    403.81s CPU    524.94s WALL (     947 calls)

     Called by *egterg:
     h_psi        :  57481.14s CPU  58474.29s WALL ( 3077017 calls)
     s_psi        :   4709.68s CPU   4722.15s WALL ( 3077017 calls)
     g_psi        :    568.55s CPU    554.43s WALL ( 2353879 calls)
     cdiaghg      :  12340.26s CPU  12378.75s WALL ( 3030535 calls)

     Called by h_psi:
     h_psi:pot    :  57046.42s CPU  58044.92s WALL ( 3077017 calls)
     h_psi:calbec :   4239.18s CPU   4264.61s WALL ( 3077017 calls)
     vloc_psi     :  48009.44s CPU  48961.39s WALL ( 3077017 calls)
     add_vuspsi   :   4780.85s CPU   4797.67s WALL ( 3077017 calls)

     General routines
     calbec       :   5989.24s CPU   6021.37s WALL ( 3970081 calls)
     fft          :     53.55s CPU     54.48s WALL (   13827 calls)
     ffts         :      1.20s CPU      1.22s WALL (    1923 calls)
     fftw         :  52071.34s CPU  53026.94s WALL (******** calls)
     interpolate  :      4.47s CPU      4.50s WALL (     976 calls)
 
     Parallel routines
     fft_scatt_xy :   9844.45s CPU   9946.96s WALL (******** calls)
     fft_scatt_yz :  13880.65s CPU  14032.55s WALL (******** calls)
 
     PWSCF        :     1d    8h45m CPU        1d    9h15m WALL

 
   This run was terminated on:  22:25:33  11Feb2020            

=------------------------------------------------------------------------------=
   JOB DONE.
=------------------------------------------------------------------------------=
