
     Program PWSCF v.6.3MaX starts on  8Feb2020 at 12:34:54 

     This program is part of the open-source Quantum ESPRESSO suite
     for quantum simulation of materials; please cite
         "P. Giannozzi et al., J. Phys.:Condens. Matter 21 395502 (2009);
         "P. Giannozzi et al., J. Phys.:Condens. Matter 29 465901 (2017);
          URL http://www.quantum-espresso.org", 
     in publications or presentations arising from this work. More details at
     http://www.quantum-espresso.org/quote

     Parallel version (MPI), running on     4 processors

     MPI processes distributed on     1 nodes
     R & G space division:  proc/nbgrp/npool/nimage =       4
     Waiting for input...
     Reading input from standard input

     Current dimensions of program PWSCF are:
     Max number of different atomic species (ntypx) = 10
     Max number of k-points (npk) =  40000
     Max angular momentum in pseudopotentials (lmaxx) =  3
     Message from routine iosys:
     minimal I/O required, wf_collect reset to FALSE

     Subspace diagonalization in iterative solution of the eigenvalue problem:
     a serial algorithm will be used

 
     Parallelization info
     --------------------
     sticks:   dense  smooth     PW     G-vecs:    dense   smooth      PW
     Min         621     246     75                41578    10500    1730
     Max         622     247     76                41582    10501    1734
     Sum        2487     985    301               166321    42003    6925
 


     bravais-lattice index     =            0
     lattice parameter (alat)  =       1.8897  a.u.
     unit-cell volume          =     880.0102 (a.u.)^3
     number of atoms/cell      =            6
     number of atomic types    =            2
     number of electrons       =        74.00
     number of Kohn-Sham states=           44
     kinetic-energy cutoff     =      50.0000  Ry
     charge density cutoff     =     500.0000  Ry
     convergence threshold     =      1.0E-10
     mixing beta               =       0.6000
     number of iterations used =            8  plain     mixing
     Exchange-correlation      = SLA PW PBE PBE ( 1  4  3  4 0 0)
     nstep                     =           50


     celldm(1)=   1.889726  celldm(2)=   0.000000  celldm(3)=   0.000000
     celldm(4)=   0.000000  celldm(5)=   0.000000  celldm(6)=   0.000000

     crystal axes: (cart. coord. in units of alat)
               a(1) = (  -1.758031  -1.758031  -1.758031 )  
               a(2) = (   1.758031   1.758031  -5.274095 )  
               a(3) = (   5.274095  -5.274095  -1.758031 )  

     reciprocal axes: (cart. coord. in units 2 pi/alat)
               b(1) = ( -0.237008 -0.189606 -0.142205 )  
               b(2) = (  0.047402  0.094803 -0.142205 )  
               b(3) = (  0.094803 -0.094803  0.000000 )  


     PseudoPot. # 1 for Nb read from file:
     ./Nb.pbe-nsp-van.UPF
     MD5 check sum: 0a22fc7fb0ba19a08ca5db297a5d2854
     Pseudo is Ultrasoft + core correction, Zval = 13.0
     Generated by new atomic code, or converted to UPF format
     Using radial grid of  887 points,  6 beta functions with: 
                l(1) =   0
                l(2) =   0
                l(3) =   1
                l(4) =   1
                l(5) =   2
                l(6) =   2
     Q(r) pseudized with  6 coefficients,  rinner =    1.000   1.000   1.000
                                                       1.000   1.000

     PseudoPot. # 2 for Ti read from file:
     ./Ti.pbe-sp-van_ak.UPF
     MD5 check sum: f98fea3e8887528921fefa5636a534ca
     Pseudo is Ultrasoft, Zval = 12.0
     Generated by new atomic code, or converted to UPF format
     Using radial grid of  851 points,  6 beta functions with: 
                l(1) =   0
                l(2) =   0
                l(3) =   1
                l(4) =   1
                l(5) =   2
                l(6) =   2
     Q(r) pseudized with  8 coefficients,  rinner =    1.000   1.000   1.000
                                                       1.000   1.000

     atomic species   valence    mass     pseudopotential
        Nb            13.00    92.90638     Nb( 1.00)
        Ti            12.00    47.86700     Ti( 1.00)

     No symmetry found
          (note:  1 additional sym.ops. were found but ignored
           their fractional translations are incommensurate with FFT grid)


   Cartesian axes

     site n.     atom                  positions (alat units)
         1           Ti  tau(   1) = (   3.5160633  -3.5160633  -7.0321265  )
         2           Ti  tau(   2) = (   1.7580316  -1.7580316  -5.2740949  )
         3           Ti  tau(   3) = (   5.2740949  -5.2740949  -5.2740949  )
         4           Ti  tau(   4) = (   3.5160633  -3.5160633  -3.5160633  )
         5           Nb  tau(   5) = (   1.7580316  -1.7580316  -1.7580316  )
         6           Nb  tau(   6) = (   5.2740949  -5.2740949  -8.7901582  )

     number of k points=   762  Marzari-Vanderbilt smearing, width (Ry)=  0.0200

     Number of k-points >= 100: set verbosity='high' to print them.

     Dense  grid:   166321 G-vectors     FFT dimensions: (  45,  80, 108)

     Smooth grid:    42003 G-vectors     FFT dimensions: (  25,  50,  72)

     Estimated max dynamical RAM per process >     830.44 MB

     Estimated total dynamical RAM >       3.24 GB

     Initial potential from superposition of free atoms

     starting charge   69.99436, renormalised to   74.00000
     Starting wfcs are   66 randomized atomic wfcs

     total cpu time spent up to now is       47.9 secs

     Self-consistent Calculation

     iteration #  1     ecut=    50.00 Ry     beta= 0.60
     Davidson diagonalization with overlap
     ethr =  1.00E-02,  avg # of iterations =  3.7

     total cpu time spent up to now is      171.6 secs

     total energy              =    -677.72466930 Ry
     Harris-Foulkes estimate   =    -706.09424257 Ry
     estimated scf accuracy    <      35.20755740 Ry

     iteration #  2     ecut=    50.00 Ry     beta= 0.60
     Davidson diagonalization with overlap
     ethr =  1.00E-02,  avg # of iterations =  7.4

     total cpu time spent up to now is      390.1 secs

     total energy              =    -670.89168815 Ry
     Harris-Foulkes estimate   =    -760.23067084 Ry
     estimated scf accuracy    <     349.46430283 Ry

     iteration #  3     ecut=    50.00 Ry     beta= 0.60
     Davidson diagonalization with overlap
     ethr =  1.00E-02,  avg # of iterations =  6.1

     total cpu time spent up to now is      572.3 secs

     total energy              =    -701.93437963 Ry
     Harris-Foulkes estimate   =    -704.88087002 Ry
     estimated scf accuracy    <      20.39581028 Ry

     iteration #  4     ecut=    50.00 Ry     beta= 0.60
     Davidson diagonalization with overlap
     ethr =  1.00E-02,  avg # of iterations =  3.8

     total cpu time spent up to now is      677.3 secs

     total energy              =    -701.90702739 Ry
     Harris-Foulkes estimate   =    -702.56200535 Ry
     estimated scf accuracy    <       6.68254530 Ry

     iteration #  5     ecut=    50.00 Ry     beta= 0.60
     Davidson diagonalization with overlap
     ethr =  9.03E-03,  avg # of iterations =  1.7

     total cpu time spent up to now is      761.0 secs

     total energy              =    -702.31746827 Ry
     Harris-Foulkes estimate   =    -702.29848452 Ry
     estimated scf accuracy    <       4.22856630 Ry

     iteration #  6     ecut=    50.00 Ry     beta= 0.60
     Davidson diagonalization with overlap
     ethr =  5.71E-03,  avg # of iterations =  1.4

     total cpu time spent up to now is      842.8 secs

     total energy              =    -702.41107886 Ry
     Harris-Foulkes estimate   =    -702.37078418 Ry
     estimated scf accuracy    <       4.09895249 Ry

     iteration #  7     ecut=    50.00 Ry     beta= 0.60
     Davidson diagonalization with overlap
     ethr =  5.54E-03,  avg # of iterations =  1.1

     total cpu time spent up to now is      923.4 secs

     total energy              =    -702.45808491 Ry
     Harris-Foulkes estimate   =    -702.43930305 Ry
     estimated scf accuracy    <       4.32822439 Ry

     iteration #  8     ecut=    50.00 Ry     beta= 0.60
     Davidson diagonalization with overlap
     ethr =  5.54E-03,  avg # of iterations =  1.0

     total cpu time spent up to now is     1003.8 secs

     total energy              =    -702.32455554 Ry
     Harris-Foulkes estimate   =    -702.47709428 Ry
     estimated scf accuracy    <       4.42568591 Ry

     iteration #  9     ecut=    50.00 Ry     beta= 0.60
     Davidson diagonalization with overlap
     ethr =  5.54E-03,  avg # of iterations =  1.0

     total cpu time spent up to now is     1085.4 secs

     total energy              =    -702.42489281 Ry
     Harris-Foulkes estimate   =    -702.37850532 Ry
     estimated scf accuracy    <       3.55386121 Ry

     iteration # 10     ecut=    50.00 Ry     beta= 0.60
     Davidson diagonalization with overlap
     ethr =  4.80E-03,  avg # of iterations =  4.3

     total cpu time spent up to now is     1189.2 secs

     total energy              =    -703.45636232 Ry
     Harris-Foulkes estimate   =    -702.74092311 Ry
     estimated scf accuracy    <       5.46302263 Ry

     iteration # 11     ecut=    50.00 Ry     beta= 0.60
     Davidson diagonalization with overlap
     ethr =  4.80E-03,  avg # of iterations =  5.3

     total cpu time spent up to now is     1342.4 secs

     total energy              =    -704.79836550 Ry
     Harris-Foulkes estimate   =    -709.18020951 Ry
     estimated scf accuracy    <     107.37470299 Ry

     iteration # 12     ecut=    50.00 Ry     beta= 0.60
     Davidson diagonalization with overlap
     ethr =  4.80E-03,  avg # of iterations =  2.0

     total cpu time spent up to now is     1428.7 secs

     total energy              =    -701.94604010 Ry
     Harris-Foulkes estimate   =    -705.08520817 Ry
     estimated scf accuracy    <      74.96508155 Ry

     iteration # 13     ecut=    50.00 Ry     beta= 0.60
     Davidson diagonalization with overlap
     ethr =  4.80E-03,  avg # of iterations =  3.6

     total cpu time spent up to now is     1530.4 secs

     total energy              =    -702.74346863 Ry
     Harris-Foulkes estimate   =    -702.78025197 Ry
     estimated scf accuracy    <      14.80549752 Ry

     iteration # 14     ecut=    50.00 Ry     beta= 0.60
     Davidson diagonalization with overlap
     ethr =  4.80E-03,  avg # of iterations =  1.2

     total cpu time spent up to now is     1613.8 secs

     total energy              =    -701.37684312 Ry
     Harris-Foulkes estimate   =    -702.77435885 Ry
     estimated scf accuracy    <      14.42373007 Ry

     iteration # 15     ecut=    50.00 Ry     beta= 0.60
     Davidson diagonalization with overlap
     ethr =  4.80E-03,  avg # of iterations =  5.7

     total cpu time spent up to now is     1744.4 secs

     total energy              =    -702.31918666 Ry
     Harris-Foulkes estimate   =    -702.40892348 Ry
     estimated scf accuracy    <       1.63484145 Ry

     iteration # 16     ecut=    50.00 Ry     beta= 0.60
     Davidson diagonalization with overlap
     ethr =  2.21E-03,  avg # of iterations =  1.5

     total cpu time spent up to now is     1831.8 secs

     total energy              =    -702.33701387 Ry
     Harris-Foulkes estimate   =    -702.37228455 Ry
     estimated scf accuracy    <       1.25652912 Ry

     iteration # 17     ecut=    50.00 Ry     beta= 0.60
     Davidson diagonalization with overlap
     ethr =  1.70E-03,  avg # of iterations =  1.1

     total cpu time spent up to now is     1913.4 secs

     total energy              =    -702.30914052 Ry
     Harris-Foulkes estimate   =    -702.35951092 Ry
     estimated scf accuracy    <       1.04416282 Ry

     iteration # 18     ecut=    50.00 Ry     beta= 0.60
     Davidson diagonalization with overlap
     ethr =  1.41E-03,  avg # of iterations =  1.0

     total cpu time spent up to now is     1994.6 secs

     total energy              =    -702.28764417 Ry
     Harris-Foulkes estimate   =    -702.36299214 Ry
     estimated scf accuracy    <       1.08095260 Ry

     iteration # 19     ecut=    50.00 Ry     beta= 0.60
     Davidson diagonalization with overlap
     ethr =  1.41E-03,  avg # of iterations =  1.1

     total cpu time spent up to now is     2079.5 secs

     total energy              =    -702.31245869 Ry
     Harris-Foulkes estimate   =    -702.32499672 Ry
     estimated scf accuracy    <       0.30590693 Ry

     iteration # 20     ecut=    50.00 Ry     beta= 0.60
     Davidson diagonalization with overlap
     ethr =  4.13E-04,  avg # of iterations =  3.8

     total cpu time spent up to now is     2179.1 secs

     total energy              =    -702.32062463 Ry
     Harris-Foulkes estimate   =    -702.32521231 Ry
     estimated scf accuracy    <       0.12780663 Ry

     iteration # 21     ecut=    50.00 Ry     beta= 0.60
     Davidson diagonalization with overlap
     ethr =  1.73E-04,  avg # of iterations =  6.6

     total cpu time spent up to now is     2297.3 secs

     total energy              =    -702.30316158 Ry
     Harris-Foulkes estimate   =    -702.32935840 Ry
     estimated scf accuracy    <       0.06476281 Ry

     iteration # 22     ecut=    50.00 Ry     beta= 0.60
     Davidson diagonalization with overlap
     ethr =  8.75E-05,  avg # of iterations =  6.6

     total cpu time spent up to now is     2454.9 secs

     total energy              =    -702.28730787 Ry
     Harris-Foulkes estimate   =    -702.34161572 Ry
     estimated scf accuracy    <       0.35891036 Ry

     iteration # 23     ecut=    50.00 Ry     beta= 0.60
     Davidson diagonalization with overlap
     ethr =  8.75E-05,  avg # of iterations =  6.9

     total cpu time spent up to now is     2609.6 secs

     total energy              =    -702.30337427 Ry
     Harris-Foulkes estimate   =    -702.33464893 Ry
     estimated scf accuracy    <       0.30594588 Ry

     iteration # 24     ecut=    50.00 Ry     beta= 0.60
     Davidson diagonalization with overlap
     ethr =  8.75E-05,  avg # of iterations =  4.8

     total cpu time spent up to now is     2715.6 secs

     total energy              =    -702.31986964 Ry
     Harris-Foulkes estimate   =    -702.32055498 Ry
     estimated scf accuracy    <       0.00975111 Ry

     iteration # 25     ecut=    50.00 Ry     beta= 0.60
     Davidson diagonalization with overlap
     c_bands:  1 eigenvalues not converged
     c_bands:  1 eigenvalues not converged
     c_bands:  1 eigenvalues not converged
     c_bands:  2 eigenvalues not converged
     c_bands:  1 eigenvalues not converged
     c_bands:  1 eigenvalues not converged
     c_bands:  1 eigenvalues not converged
     c_bands:  1 eigenvalues not converged
     c_bands:  1 eigenvalues not converged
     ethr =  1.32E-05,  avg # of iterations =  8.8

     total cpu time spent up to now is     2873.6 secs

     total energy              =    -702.32123550 Ry
     Harris-Foulkes estimate   =    -702.32203135 Ry
     estimated scf accuracy    <       0.00970722 Ry

     iteration # 26     ecut=    50.00 Ry     beta= 0.60
     Davidson diagonalization with overlap
     ethr =  1.31E-05,  avg # of iterations =  1.0

     total cpu time spent up to now is     2954.9 secs

     total energy              =    -702.32137226 Ry
     Harris-Foulkes estimate   =    -702.32149984 Ry
     estimated scf accuracy    <       0.00139154 Ry

     iteration # 27     ecut=    50.00 Ry     beta= 0.60
     Davidson diagonalization with overlap
     c_bands:  1 eigenvalues not converged
     c_bands:  1 eigenvalues not converged
     c_bands:  1 eigenvalues not converged
     c_bands:  1 eigenvalues not converged
     c_bands:  1 eigenvalues not converged
     ethr =  1.88E-06,  avg # of iterations =  7.3

     total cpu time spent up to now is     3097.1 secs

     total energy              =    -702.32156425 Ry
     Harris-Foulkes estimate   =    -702.32163205 Ry
     estimated scf accuracy    <       0.00053942 Ry

     iteration # 28     ecut=    50.00 Ry     beta= 0.60
     Davidson diagonalization with overlap
     ethr =  7.29E-07,  avg # of iterations =  1.1

     total cpu time spent up to now is     3178.6 secs

     total energy              =    -702.32157779 Ry
     Harris-Foulkes estimate   =    -702.32160254 Ry
     estimated scf accuracy    <       0.00026956 Ry

     iteration # 29     ecut=    50.00 Ry     beta= 0.60
     Davidson diagonalization with overlap
     ethr =  3.64E-07,  avg # of iterations =  2.2

     total cpu time spent up to now is     3265.1 secs

     total energy              =    -702.32159214 Ry
     Harris-Foulkes estimate   =    -702.32159771 Ry
     estimated scf accuracy    <       0.00005189 Ry

     iteration # 30     ecut=    50.00 Ry     beta= 0.60
     Davidson diagonalization with overlap
     ethr =  7.01E-08,  avg # of iterations =  4.8

     total cpu time spent up to now is     3388.7 secs

     total energy              =    -702.32160163 Ry
     Harris-Foulkes estimate   =    -702.32160380 Ry
     estimated scf accuracy    <       0.00001937 Ry

     iteration # 31     ecut=    50.00 Ry     beta= 0.60
     Davidson diagonalization with overlap
     ethr =  2.62E-08,  avg # of iterations =  1.2

     total cpu time spent up to now is     3470.5 secs

     total energy              =    -702.32160209 Ry
     Harris-Foulkes estimate   =    -702.32160248 Ry
     estimated scf accuracy    <       0.00000262 Ry

     iteration # 32     ecut=    50.00 Ry     beta= 0.60
     Davidson diagonalization with overlap
     ethr =  3.54E-09,  avg # of iterations =  4.8

     total cpu time spent up to now is     3598.9 secs

     total energy              =    -702.32160280 Ry
     Harris-Foulkes estimate   =    -702.32160302 Ry
     estimated scf accuracy    <       0.00000290 Ry

     iteration # 33     ecut=    50.00 Ry     beta= 0.60
     Davidson diagonalization with overlap
     ethr =  3.54E-09,  avg # of iterations =  1.0

     total cpu time spent up to now is     3680.2 secs

     total energy              =    -702.32160277 Ry
     Harris-Foulkes estimate   =    -702.32160294 Ry
     estimated scf accuracy    <       0.00000145 Ry

     iteration # 34     ecut=    50.00 Ry     beta= 0.60
     Davidson diagonalization with overlap
     ethr =  1.95E-09,  avg # of iterations =  1.5

     total cpu time spent up to now is     3763.3 secs

     total energy              =    -702.32160281 Ry
     Harris-Foulkes estimate   =    -702.32160284 Ry
     estimated scf accuracy    <       0.00000035 Ry

     iteration # 35     ecut=    50.00 Ry     beta= 0.60
     Davidson diagonalization with overlap
     ethr =  4.78E-10,  avg # of iterations =  4.4

     total cpu time spent up to now is     3882.9 secs

     total energy              =    -702.32160286 Ry
     Harris-Foulkes estimate   =    -702.32160287 Ry
     estimated scf accuracy    <       0.00000007 Ry

     iteration # 36     ecut=    50.00 Ry     beta= 0.60
     Davidson diagonalization with overlap
     ethr =  9.22E-11,  avg # of iterations =  3.5

     total cpu time spent up to now is     3984.5 secs

     total energy              =    -702.32160286 Ry
     Harris-Foulkes estimate   =    -702.32160287 Ry
     estimated scf accuracy    <       0.00000013 Ry

     iteration # 37     ecut=    50.00 Ry     beta= 0.60
     Davidson diagonalization with overlap
     ethr =  9.22E-11,  avg # of iterations =  1.0

     total cpu time spent up to now is     4065.9 secs

     total energy              =    -702.32160286 Ry
     Harris-Foulkes estimate   =    -702.32160286 Ry
     estimated scf accuracy    <          7.3E-09 Ry

     iteration # 38     ecut=    50.00 Ry     beta= 0.60
     Davidson diagonalization with overlap
     ethr =  9.91E-12,  avg # of iterations =  5.1

     total cpu time spent up to now is     4201.9 secs

     total energy              =    -702.32160286 Ry
     Harris-Foulkes estimate   =    -702.32160287 Ry
     estimated scf accuracy    <       0.00000015 Ry

     iteration # 39     ecut=    50.00 Ry     beta= 0.60
     Davidson diagonalization with overlap
     ethr =  9.91E-12,  avg # of iterations =  4.7

     total cpu time spent up to now is     4328.3 secs

     total energy              =    -702.32160287 Ry
     Harris-Foulkes estimate   =    -702.32160287 Ry
     estimated scf accuracy    <       0.00000001 Ry

     iteration # 40     ecut=    50.00 Ry     beta= 0.60
     Davidson diagonalization with overlap
     ethr =  9.91E-12,  avg # of iterations =  1.0

     total cpu time spent up to now is     4409.6 secs

     total energy              =    -702.32160287 Ry
     Harris-Foulkes estimate   =    -702.32160287 Ry
     estimated scf accuracy    <          2.5E-09 Ry

     iteration # 41     ecut=    50.00 Ry     beta= 0.60
     Davidson diagonalization with overlap
     ethr =  3.42E-12,  avg # of iterations =  3.9

     total cpu time spent up to now is     4521.8 secs

     total energy              =    -702.32160287 Ry
     Harris-Foulkes estimate   =    -702.32160287 Ry
     estimated scf accuracy    <          3.2E-10 Ry

     iteration # 42     ecut=    50.00 Ry     beta= 0.60
     Davidson diagonalization with overlap
     ethr =  4.38E-13,  avg # of iterations =  3.5

     total cpu time spent up to now is     4626.7 secs

     total energy              =    -702.32160287 Ry
     Harris-Foulkes estimate   =    -702.32160287 Ry
     estimated scf accuracy    <          2.2E-10 Ry

     iteration # 43     ecut=    50.00 Ry     beta= 0.60
     Davidson diagonalization with overlap
     ethr =  3.03E-13,  avg # of iterations =  1.9

     total cpu time spent up to now is     4714.5 secs

     End of self-consistent calculation

     Number of k-points >= 100: set verbosity='high' to print the bands.

     the Fermi energy is    11.4326 ev

!    total energy              =    -702.32160287 Ry
     Harris-Foulkes estimate   =    -702.32160287 Ry
     estimated scf accuracy    <          9.0E-11 Ry

     The total energy is the sum of the following terms:

     one-electron contribution =    -252.84186856 Ry
     hartree contribution      =     144.63495218 Ry
     xc contribution           =     -93.99595997 Ry
     ewald contribution        =    -500.11731374 Ry
     smearing contrib. (-TS)   =      -0.00141277 Ry

     convergence has been achieved in  43 iterations

     Forces acting on atoms (cartesian axes, Ry/au):

     atom    1 type  2   force =     0.00123484    0.00055203   -0.01039580
     atom    2 type  2   force =    -0.00358025    0.00392615   -0.00510512
     atom    3 type  2   force =     0.00357077   -0.00394291    0.00513080
     atom    4 type  2   force =    -0.00122339   -0.00053181    0.01036470
     atom    5 type  1   force =    -0.00311627    0.00562313    0.00715074
     atom    6 type  1   force =     0.00311430   -0.00562659   -0.00714533

     Total force =     0.022647     Total SCF correction =     0.000014


     Computing stress (Cartesian axis) and pressure

          total   stress  (Ry/bohr**3)                   (kbar)     P= -189.29
  -0.00128428  -0.00000192  -0.00000517       -188.92     -0.28     -0.76
  -0.00000192  -0.00129296  -0.00002042         -0.28   -190.20     -3.00
  -0.00000517  -0.00002042  -0.00128312         -0.76     -3.00   -188.75


     BFGS Geometry Optimization

     number of scf cycles    =   1
     number of bfgs steps    =   0

     enthalpy new            =    -702.3216028656 Ry

     new trust radius        =       0.1918020399 bohr
     new conv_thr            =            1.0E-10 Ry

     new unit-cell volume =    797.78379 a.u.^3 (   118.21936 Ang^3 )
     density =      5.29938 g/cm^3

CELL_PARAMETERS (alat=  1.88972599)
  -1.701274376  -1.700222860  -1.700512406
   1.702183674   1.703813300  -5.106036957
   5.105239238  -5.102970611  -1.699626484

ATOMIC_POSITIONS (angstrom)
Ti       3.404883742  -3.398702919  -6.810533779
Ti       1.700519106  -1.696584634  -5.106857405
Ti       5.107522538  -5.103195922  -5.100272335
Ti       3.403168622  -3.401058687  -3.396625058
Nb       1.700301215  -1.697514201  -1.697305739
Nb       5.107744273  -5.102259539  -8.509834393


     NEW-OLD atomic charge density approx. for the potential
     extrapolated charge   66.78578, renormalised to   74.00000

     total cpu time spent up to now is     4760.5 secs

     Self-consistent Calculation

     iteration #  1     ecut=    50.00 Ry     beta= 0.60
     Davidson diagonalization with overlap
     c_bands:  1 eigenvalues not converged
     c_bands:  3 eigenvalues not converged
     c_bands:  1 eigenvalues not converged
     c_bands:  2 eigenvalues not converged
     c_bands:  2 eigenvalues not converged
     c_bands:  2 eigenvalues not converged
     c_bands:  1 eigenvalues not converged
     c_bands:  3 eigenvalues not converged
     c_bands:  3 eigenvalues not converged
     c_bands:  1 eigenvalues not converged
     c_bands:  1 eigenvalues not converged
     c_bands:  1 eigenvalues not converged
     c_bands:  1 eigenvalues not converged
     c_bands:  1 eigenvalues not converged
     c_bands:  2 eigenvalues not converged
     c_bands:  2 eigenvalues not converged
     c_bands:  1 eigenvalues not converged
     c_bands:  1 eigenvalues not converged
     c_bands:  1 eigenvalues not converged
     c_bands:  1 eigenvalues not converged
     c_bands:  1 eigenvalues not converged
     c_bands:  1 eigenvalues not converged
     c_bands:  2 eigenvalues not converged
     c_bands:  1 eigenvalues not converged
     c_bands:  1 eigenvalues not converged
     c_bands:  1 eigenvalues not converged
     c_bands:  1 eigenvalues not converged
     c_bands:  1 eigenvalues not converged
     c_bands:  1 eigenvalues not converged
     c_bands:  3 eigenvalues not converged
     c_bands:  2 eigenvalues not converged
     c_bands:  1 eigenvalues not converged
     c_bands:  2 eigenvalues not converged
     c_bands:  1 eigenvalues not converged
     c_bands:  1 eigenvalues not converged
     c_bands:  2 eigenvalues not converged
     c_bands:  2 eigenvalues not converged
     c_bands:  1 eigenvalues not converged
     c_bands:  1 eigenvalues not converged
     c_bands:  1 eigenvalues not converged
     c_bands:  1 eigenvalues not converged
     c_bands:  2 eigenvalues not converged
     c_bands:  1 eigenvalues not converged
     c_bands:  4 eigenvalues not converged
     c_bands:  3 eigenvalues not converged
     c_bands:  3 eigenvalues not converged
     c_bands:  1 eigenvalues not converged
     c_bands:  1 eigenvalues not converged
     c_bands:  1 eigenvalues not converged
     c_bands:  1 eigenvalues not converged
     c_bands:  1 eigenvalues not converged
     c_bands:  2 eigenvalues not converged
     c_bands:  1 eigenvalues not converged
     c_bands:  1 eigenvalues not converged
     c_bands:  1 eigenvalues not converged
     c_bands:  1 eigenvalues not converged
     c_bands:  1 eigenvalues not converged
     c_bands:  2 eigenvalues not converged
     c_bands:  1 eigenvalues not converged
     c_bands:  1 eigenvalues not converged
     c_bands:  1 eigenvalues not converged
     c_bands:  1 eigenvalues not converged
     c_bands:  1 eigenvalues not converged
     c_bands:  1 eigenvalues not converged
     c_bands:  1 eigenvalues not converged
     c_bands:  1 eigenvalues not converged
     c_bands:  1 eigenvalues not converged
     c_bands:  1 eigenvalues not converged
     c_bands:  1 eigenvalues not converged
     c_bands:  2 eigenvalues not converged
     c_bands:  1 eigenvalues not converged
     c_bands:  1 eigenvalues not converged
     c_bands:  1 eigenvalues not converged
     c_bands:  2 eigenvalues not converged
     c_bands:  1 eigenvalues not converged
     c_bands:  1 eigenvalues not converged
     c_bands:  1 eigenvalues not converged
     c_bands:  1 eigenvalues not converged
     c_bands:  1 eigenvalues not converged
     c_bands:  1 eigenvalues not converged
     ethr =  1.00E-06,  avg # of iterations = 16.8

     total cpu time spent up to now is     5148.8 secs

     total energy              =    -678.29291928 Ry
     Harris-Foulkes estimate   =    -720.13091095 Ry
     estimated scf accuracy    <      26.34865266 Ry

     iteration #  2     ecut=    50.00 Ry     beta= 0.60
     Davidson diagonalization with overlap
     ethr =  1.00E-02,  avg # of iterations =  5.7

     total cpu time spent up to now is     5330.1 secs

     total energy              =    -696.52269659 Ry
     Harris-Foulkes estimate   =    -737.18964864 Ry
     estimated scf accuracy    <     131.04781797 Ry

     iteration #  3     ecut=    50.00 Ry     beta= 0.60
     Davidson diagonalization with overlap
     ethr =  1.00E-02,  avg # of iterations =  5.5

     total cpu time spent up to now is     5501.4 secs

     total energy              =    -702.34674471 Ry
     Harris-Foulkes estimate   =    -709.36884630 Ry
     estimated scf accuracy    <      30.63104895 Ry

     iteration #  4     ecut=    50.00 Ry     beta= 0.60
     Davidson diagonalization with overlap
     ethr =  1.00E-02,  avg # of iterations =  4.2

     total cpu time spent up to now is     5623.7 secs

     total energy              =    -703.29846000 Ry
     Harris-Foulkes estimate   =    -706.81534214 Ry
     estimated scf accuracy    <      24.50517595 Ry

     iteration #  5     ecut=    50.00 Ry     beta= 0.60
     Davidson diagonalization with overlap
     ethr =  1.00E-02,  avg # of iterations =  1.2

     total cpu time spent up to now is     5706.2 secs

     total energy              =    -703.10442858 Ry
     Harris-Foulkes estimate   =    -703.83040195 Ry
     estimated scf accuracy    <       8.98801882 Ry

     iteration #  6     ecut=    50.00 Ry     beta= 0.60
     Davidson diagonalization with overlap
     ethr =  1.00E-02,  avg # of iterations =  1.1

     total cpu time spent up to now is     5787.7 secs

     total energy              =    -702.37390045 Ry
     Harris-Foulkes estimate   =    -703.23124354 Ry
     estimated scf accuracy    <       5.99221772 Ry

     iteration #  7     ecut=    50.00 Ry     beta= 0.60
     Davidson diagonalization with overlap
     ethr =  8.10E-03,  avg # of iterations =  1.7

     total cpu time spent up to now is     5872.1 secs

     total energy              =    -702.39937719 Ry
     Harris-Foulkes estimate   =    -702.51960999 Ry
     estimated scf accuracy    <       2.83584927 Ry

     iteration #  8     ecut=    50.00 Ry     beta= 0.60
     Davidson diagonalization with overlap
     ethr =  3.83E-03,  avg # of iterations =  3.2

     total cpu time spent up to now is     5967.6 secs

     total energy              =    -702.73051757 Ry
     Harris-Foulkes estimate   =    -702.54560922 Ry
     estimated scf accuracy    <       1.53593814 Ry

     iteration #  9     ecut=    50.00 Ry     beta= 0.60
     Davidson diagonalization with overlap
     ethr =  2.08E-03,  avg # of iterations =  1.4

     total cpu time spent up to now is     6050.5 secs

     total energy              =    -702.71581779 Ry
     Harris-Foulkes estimate   =    -702.77621858 Ry
     estimated scf accuracy    <       2.51265606 Ry

     iteration # 10     ecut=    50.00 Ry     beta= 0.60
     Davidson diagonalization with overlap
     ethr =  2.08E-03,  avg # of iterations =  1.1

     total cpu time spent up to now is     6132.4 secs

     total energy              =    -701.90185866 Ry
     Harris-Foulkes estimate   =    -702.72871346 Ry
     estimated scf accuracy    <       2.23475560 Ry

     iteration # 11     ecut=    50.00 Ry     beta= 0.60
     Davidson diagonalization with overlap
     ethr =  2.08E-03,  avg # of iterations =  5.3

     total cpu time spent up to now is     6283.2 secs

     total energy              =    -702.29614888 Ry
     Harris-Foulkes estimate   =    -702.69668414 Ry
     estimated scf accuracy    <       6.52727172 Ry

     iteration # 12     ecut=    50.00 Ry     beta= 0.60
     Davidson diagonalization with overlap
     ethr =  2.08E-03,  avg # of iterations =  1.0

     total cpu time spent up to now is     6364.1 secs

     total energy              =    -702.34173953 Ry
     Harris-Foulkes estimate   =    -702.40365029 Ry
     estimated scf accuracy    <       1.39610940 Ry

     iteration # 13     ecut=    50.00 Ry     beta= 0.60
     Davidson diagonalization with overlap
     ethr =  1.89E-03,  avg # of iterations =  2.1

     total cpu time spent up to now is     6450.5 secs

     total energy              =    -702.36678303 Ry
     Harris-Foulkes estimate   =    -702.38492185 Ry
     estimated scf accuracy    <       0.50731247 Ry

     iteration # 14     ecut=    50.00 Ry     beta= 0.60
     Davidson diagonalization with overlap
     ethr =  6.86E-04,  avg # of iterations =  4.1

     total cpu time spent up to now is     6554.7 secs

     total energy              =    -702.40545051 Ry
     Harris-Foulkes estimate   =    -702.40559760 Ry
     estimated scf accuracy    <       0.03677187 Ry

     iteration # 15     ecut=    50.00 Ry     beta= 0.60
     Davidson diagonalization with overlap
     ethr =  4.97E-05,  avg # of iterations =  8.5

     total cpu time spent up to now is     6718.8 secs

     total energy              =    -702.40851387 Ry
     Harris-Foulkes estimate   =    -702.41411342 Ry
     estimated scf accuracy    <       0.05521299 Ry

     iteration # 16     ecut=    50.00 Ry     beta= 0.60
     Davidson diagonalization with overlap
     ethr =  4.97E-05,  avg # of iterations =  3.3

     total cpu time spent up to now is     6813.8 secs

     total energy              =    -702.40744626 Ry
     Harris-Foulkes estimate   =    -702.41521555 Ry
     estimated scf accuracy    <       0.05010837 Ry

     iteration # 17     ecut=    50.00 Ry     beta= 0.60
     Davidson diagonalization with overlap
     ethr =  4.97E-05,  avg # of iterations =  1.7

     total cpu time spent up to now is     6898.0 secs

     total energy              =    -702.41101170 Ry
     Harris-Foulkes estimate   =    -702.41113917 Ry
     estimated scf accuracy    <       0.00039992 Ry

     iteration # 18     ecut=    50.00 Ry     beta= 0.60
     Davidson diagonalization with overlap
     c_bands:  1 eigenvalues not converged
     c_bands:  1 eigenvalues not converged
     c_bands:  2 eigenvalues not converged
     c_bands:  1 eigenvalues not converged
     ethr =  5.40E-07,  avg # of iterations =  6.8

     total cpu time spent up to now is     7084.0 secs

     total energy              =    -702.41200214 Ry
     Harris-Foulkes estimate   =    -702.41210913 Ry
     estimated scf accuracy    <       0.00540555 Ry

     iteration # 19     ecut=    50.00 Ry     beta= 0.60
     Davidson diagonalization with overlap
     c_bands:  1 eigenvalues not converged
     c_bands:  2 eigenvalues not converged
     c_bands:  1 eigenvalues not converged
     ethr =  5.40E-07,  avg # of iterations =  1.1

     total cpu time spent up to now is     7165.2 secs

     total energy              =    -702.41171957 Ry
     Harris-Foulkes estimate   =    -702.41202913 Ry
     estimated scf accuracy    <       0.00416852 Ry

     iteration # 20     ecut=    50.00 Ry     beta= 0.60
     Davidson diagonalization with overlap
     ethr =  5.40E-07,  avg # of iterations =  4.0

     total cpu time spent up to now is     7279.1 secs

     total energy              =    -702.41177107 Ry
     Harris-Foulkes estimate   =    -702.41180743 Ry
     estimated scf accuracy    <       0.00083659 Ry

     iteration # 21     ecut=    50.00 Ry     beta= 0.60
     Davidson diagonalization with overlap
     ethr =  5.40E-07,  avg # of iterations =  1.0

     total cpu time spent up to now is     7360.0 secs

     total energy              =    -702.41170985 Ry
     Harris-Foulkes estimate   =    -702.41177634 Ry
     estimated scf accuracy    <       0.00058364 Ry

     iteration # 22     ecut=    50.00 Ry     beta= 0.60
     Davidson diagonalization with overlap
     ethr =  5.40E-07,  avg # of iterations =  3.0

     total cpu time spent up to now is     7456.9 secs

     total energy              =    -702.41173662 Ry
     Harris-Foulkes estimate   =    -702.41174724 Ry
     estimated scf accuracy    <       0.00011143 Ry

     iteration # 23     ecut=    50.00 Ry     beta= 0.60
     Davidson diagonalization with overlap
     ethr =  1.51E-07,  avg # of iterations =  3.6

     total cpu time spent up to now is     7561.5 secs

     total energy              =    -702.41174004 Ry
     Harris-Foulkes estimate   =    -702.41175223 Ry
     estimated scf accuracy    <       0.00012907 Ry

     iteration # 24     ecut=    50.00 Ry     beta= 0.60
     Davidson diagonalization with overlap
     ethr =  1.51E-07,  avg # of iterations =  1.0

     total cpu time spent up to now is     7642.3 secs

     total energy              =    -702.41174524 Ry
     Harris-Foulkes estimate   =    -702.41174618 Ry
     estimated scf accuracy    <       0.00000541 Ry

     iteration # 25     ecut=    50.00 Ry     beta= 0.60
     Davidson diagonalization with overlap
     ethr =  7.31E-09,  avg # of iterations =  5.0

     total cpu time spent up to now is     7775.2 secs

     total energy              =    -702.41174702 Ry
     Harris-Foulkes estimate   =    -702.41174737 Ry
     estimated scf accuracy    <       0.00000344 Ry

     iteration # 26     ecut=    50.00 Ry     beta= 0.60
     Davidson diagonalization with overlap
     ethr =  4.64E-09,  avg # of iterations =  3.1

     total cpu time spent up to now is     7867.0 secs

     total energy              =    -702.41174686 Ry
     Harris-Foulkes estimate   =    -702.41174756 Ry
     estimated scf accuracy    <       0.00000643 Ry

     iteration # 27     ecut=    50.00 Ry     beta= 0.60
     Davidson diagonalization with overlap
     ethr =  4.64E-09,  avg # of iterations =  1.1

     total cpu time spent up to now is     7948.3 secs

     total energy              =    -702.41174714 Ry
     Harris-Foulkes estimate   =    -702.41174724 Ry
     estimated scf accuracy    <       0.00000087 Ry

     iteration # 28     ecut=    50.00 Ry     beta= 0.60
     Davidson diagonalization with overlap
     ethr =  1.18E-09,  avg # of iterations =  3.8

     total cpu time spent up to now is     8046.8 secs

     total energy              =    -702.41174721 Ry
     Harris-Foulkes estimate   =    -702.41174722 Ry
     estimated scf accuracy    <       0.00000008 Ry

     iteration # 29     ecut=    50.00 Ry     beta= 0.60
     Davidson diagonalization with overlap
     ethr =  1.07E-10,  avg # of iterations =  4.8

     total cpu time spent up to now is     8174.3 secs

     total energy              =    -702.41174723 Ry
     Harris-Foulkes estimate   =    -702.41174723 Ry
     estimated scf accuracy    <       0.00000003 Ry

     iteration # 30     ecut=    50.00 Ry     beta= 0.60
     Davidson diagonalization with overlap
     ethr =  3.46E-11,  avg # of iterations =  1.4

     total cpu time spent up to now is     8256.9 secs

     total energy              =    -702.41174723 Ry
     Harris-Foulkes estimate   =    -702.41174723 Ry
     estimated scf accuracy    <          2.2E-09 Ry

     iteration # 31     ecut=    50.00 Ry     beta= 0.60
     Davidson diagonalization with overlap
     ethr =  2.95E-12,  avg # of iterations =  4.7

     total cpu time spent up to now is     8386.8 secs

     total energy              =    -702.41174723 Ry
     Harris-Foulkes estimate   =    -702.41174723 Ry
     estimated scf accuracy    <          1.8E-09 Ry

     iteration # 32     ecut=    50.00 Ry     beta= 0.60
     Davidson diagonalization with overlap
     ethr =  2.45E-12,  avg # of iterations =  1.0

     total cpu time spent up to now is     8467.5 secs

     total energy              =    -702.41174723 Ry
     Harris-Foulkes estimate   =    -702.41174723 Ry
     estimated scf accuracy    <          4.6E-10 Ry

     iteration # 33     ecut=    50.00 Ry     beta= 0.60
     Davidson diagonalization with overlap
     ethr =  6.21E-13,  avg # of iterations =  3.8

     total cpu time spent up to now is     8576.2 secs

     total energy              =    -702.41174723 Ry
     Harris-Foulkes estimate   =    -702.41174723 Ry
     estimated scf accuracy    <          9.2E-10 Ry

     iteration # 34     ecut=    50.00 Ry     beta= 0.60
     Davidson diagonalization with overlap
     ethr =  6.21E-13,  avg # of iterations =  1.1

     total cpu time spent up to now is     8657.2 secs

     End of self-consistent calculation

     Number of k-points >= 100: set verbosity='high' to print the bands.

     the Fermi energy is    12.8991 ev

!    total energy              =    -702.41174723 Ry
     Harris-Foulkes estimate   =    -702.41174723 Ry
     estimated scf accuracy    <          4.1E-11 Ry

     The total energy is the sum of the following terms:

     one-electron contribution =    -228.10610044 Ry
     hartree contribution      =     136.81966460 Ry
     xc contribution           =     -94.42522673 Ry
     ewald contribution        =    -516.69874083 Ry
     smearing contrib. (-TS)   =      -0.00134383 Ry

     convergence has been achieved in  34 iterations

     Forces acting on atoms (cartesian axes, Ry/au):

     atom    1 type  2   force =    -0.00028988   -0.00103638   -0.00907676
     atom    2 type  2   force =    -0.00296830    0.00172324   -0.00447950
     atom    3 type  2   force =     0.00296276   -0.00173112    0.00449172
     atom    4 type  2   force =     0.00029799    0.00104552    0.00906138
     atom    5 type  1   force =    -0.00007196    0.00439627    0.00588252
     atom    6 type  1   force =     0.00006939   -0.00439752   -0.00587936

     Total force =     0.018398     Total SCF correction =     0.000018


     Computing stress (Cartesian axis) and pressure

          total   stress  (Ry/bohr**3)                   (kbar)     P= -125.74
  -0.00085754   0.00000154  -0.00000335       -126.15      0.23     -0.49
   0.00000154  -0.00086225  -0.00001338          0.23   -126.84     -1.97
  -0.00000335  -0.00001338  -0.00084451         -0.49     -1.97   -124.23


     number of scf cycles    =   2
     number of bfgs steps    =   1

     enthalpy old            =    -702.3216028656 Ry
     enthalpy new            =    -702.4117472335 Ry

     CASE: enthalpy_new < enthalpy_old

     new trust radius        =       0.2830875085 bohr
     new conv_thr            =            1.0E-10 Ry

     new unit-cell volume =    684.74411 a.u.^3 (   101.46861 Ang^3 )
     density =      6.17422 g/cm^3

CELL_PARAMETERS (alat=  1.88972599)
  -1.616325240  -1.613763539  -1.615337203
   1.618604341   1.622824272  -4.857349172
   4.850874897  -4.845441413  -1.613086976

ATOMIC_POSITIONS (angstrom)
Ti       3.236097411  -3.223617341  -6.484628817
Ti       1.613382725  -1.605235098  -4.860379259
Ti       4.857098542  -4.844799708  -4.841844426
Ti       3.234409488  -3.226380133  -3.217653855
Nb       1.615732824  -1.605952647  -1.606350065
Nb       4.854755453  -4.844068161  -8.095893793


     NEW-OLD atomic charge density approx. for the potential
     extrapolated charge   62.44511, renormalised to   74.00000

     total cpu time spent up to now is     8703.8 secs

     Self-consistent Calculation

     iteration #  1     ecut=    50.00 Ry     beta= 0.60
     Davidson diagonalization with overlap
     c_bands:  1 eigenvalues not converged
     ethr =  1.00E-06,  avg # of iterations = 15.1

     total cpu time spent up to now is     9097.6 secs

     total energy              =    -647.82643908 Ry
     Harris-Foulkes estimate   =    -728.14730626 Ry
     estimated scf accuracy    <      60.79234570 Ry

     iteration #  2     ecut=    50.00 Ry     beta= 0.60
     Davidson diagonalization with overlap
     ethr =  1.00E-02,  avg # of iterations =  7.6

     total cpu time spent up to now is     9306.0 secs

     total energy              =    -682.29653511 Ry
     Harris-Foulkes estimate   =    -778.56775898 Ry
     estimated scf accuracy    <     308.91446098 Ry

     iteration #  3     ecut=    50.00 Ry     beta= 0.60
     Davidson diagonalization with overlap
     ethr =  1.00E-02,  avg # of iterations =  5.2

     total cpu time spent up to now is     9478.3 secs

     total energy              =    -705.63870593 Ry
     Harris-Foulkes estimate   =    -711.38566569 Ry
     estimated scf accuracy    <      24.76963157 Ry

     iteration #  4     ecut=    50.00 Ry     beta= 0.60
     Davidson diagonalization with overlap
     ethr =  1.00E-02,  avg # of iterations =  3.9

     total cpu time spent up to now is     9591.5 secs

     total energy              =    -704.83918342 Ry
     Harris-Foulkes estimate   =    -708.86255260 Ry
     estimated scf accuracy    <      37.20747421 Ry

     iteration #  5     ecut=    50.00 Ry     beta= 0.60
     Davidson diagonalization with overlap
     ethr =  1.00E-02,  avg # of iterations =  1.9

     total cpu time spent up to now is     9677.1 secs

     total energy              =    -703.15139188 Ry
     Harris-Foulkes estimate   =    -705.73153691 Ry
     estimated scf accuracy    <      13.94149673 Ry

     iteration #  6     ecut=    50.00 Ry     beta= 0.60
     Davidson diagonalization with overlap
     ethr =  1.00E-02,  avg # of iterations =  1.9

     total cpu time spent up to now is     9761.8 secs

     total energy              =    -702.94962940 Ry
     Harris-Foulkes estimate   =    -703.55237639 Ry
     estimated scf accuracy    <       5.80249217 Ry

     iteration #  7     ecut=    50.00 Ry     beta= 0.60
     Davidson diagonalization with overlap
     ethr =  7.84E-03,  avg # of iterations =  1.0

     total cpu time spent up to now is     9842.7 secs

     total energy              =    -702.77203682 Ry
     Harris-Foulkes estimate   =    -703.05597529 Ry
     estimated scf accuracy    <       4.06827731 Ry

     iteration #  8     ecut=    50.00 Ry     beta= 0.60
     Davidson diagonalization with overlap
     ethr =  5.50E-03,  avg # of iterations =  1.1

     total cpu time spent up to now is     9923.5 secs

     total energy              =    -702.57206064 Ry
     Harris-Foulkes estimate   =    -702.82799963 Ry
     estimated scf accuracy    <       3.20403527 Ry

     iteration #  9     ecut=    50.00 Ry     beta= 0.60
     Davidson diagonalization with overlap
     ethr =  4.33E-03,  avg # of iterations =  1.5

     total cpu time spent up to now is    10006.2 secs

     total energy              =    -702.58939772 Ry
     Harris-Foulkes estimate   =    -702.63165668 Ry
     estimated scf accuracy    <       2.02192722 Ry

     iteration # 10     ecut=    50.00 Ry     beta= 0.60
     Davidson diagonalization with overlap
     ethr =  2.73E-03,  avg # of iterations =  1.5

     total cpu time spent up to now is    10089.3 secs

     total energy              =    -701.80977566 Ry
     Harris-Foulkes estimate   =    -702.62063595 Ry
     estimated scf accuracy    <       1.76559091 Ry

     iteration # 11     ecut=    50.00 Ry     beta= 0.60
     Davidson diagonalization with overlap
     ethr =  2.39E-03,  avg # of iterations =  4.9

     total cpu time spent up to now is    10239.5 secs

     total energy              =    -703.15988691 Ry
     Harris-Foulkes estimate   =    -703.08765058 Ry
     estimated scf accuracy    <      12.48761411 Ry

     iteration # 12     ecut=    50.00 Ry     beta= 0.60
     Davidson diagonalization with overlap
     ethr =  2.39E-03,  avg # of iterations =  1.0

     total cpu time spent up to now is    10320.1 secs

     total energy              =    -703.55754795 Ry
     Harris-Foulkes estimate   =    -703.16455937 Ry
     estimated scf accuracy    <      13.81170789 Ry

     iteration # 13     ecut=    50.00 Ry     beta= 0.60
     Davidson diagonalization with overlap
     ethr =  2.39E-03,  avg # of iterations =  1.0

     total cpu time spent up to now is    10401.0 secs

     total energy              =    -703.65015418 Ry
     Harris-Foulkes estimate   =    -703.61238921 Ry
     estimated scf accuracy    <      21.32827341 Ry

     iteration # 14     ecut=    50.00 Ry     beta= 0.60
     Davidson diagonalization with overlap
     ethr =  2.39E-03,  avg # of iterations =  1.0

     total cpu time spent up to now is    10481.7 secs

     total energy              =    -703.34782434 Ry
     Harris-Foulkes estimate   =    -703.66907564 Ry
     estimated scf accuracy    <      22.31352547 Ry

     iteration # 15     ecut=    50.00 Ry     beta= 0.60
     Davidson diagonalization with overlap
     ethr =  2.39E-03,  avg # of iterations =  1.0

     total cpu time spent up to now is    10562.4 secs

     total energy              =    -703.73049401 Ry
     Harris-Foulkes estimate   =    -703.37101701 Ry
     estimated scf accuracy    <      17.64676863 Ry

     iteration # 16     ecut=    50.00 Ry     beta= 0.60
     Davidson diagonalization with overlap
     ethr =  2.39E-03,  avg # of iterations =  1.0

     total cpu time spent up to now is    10643.0 secs

     total energy              =    -703.71559415 Ry
     Harris-Foulkes estimate   =    -703.77209270 Ry
     estimated scf accuracy    <      25.11871656 Ry

     iteration # 17     ecut=    50.00 Ry     beta= 0.60
     Davidson diagonalization with overlap
     ethr =  2.39E-03,  avg # of iterations =  1.0

     total cpu time spent up to now is    10723.7 secs

     total energy              =    -700.98629095 Ry
     Harris-Foulkes estimate   =    -703.72498537 Ry
     estimated scf accuracy    <      24.92866001 Ry

     iteration # 18     ecut=    50.00 Ry     beta= 0.60
     Davidson diagonalization with overlap
     ethr =  2.39E-03,  avg # of iterations =  5.5

     total cpu time spent up to now is    10855.5 secs

     total energy              =    -702.42097481 Ry
     Harris-Foulkes estimate   =    -702.47784074 Ry
     estimated scf accuracy    <       0.56508009 Ry

     iteration # 19     ecut=    50.00 Ry     beta= 0.60
     Davidson diagonalization with overlap
     ethr =  7.64E-04,  avg # of iterations =  2.3

     total cpu time spent up to now is    10943.1 secs

     total energy              =    -702.40384722 Ry
     Harris-Foulkes estimate   =    -702.45735833 Ry
     estimated scf accuracy    <       0.13766691 Ry

     iteration # 20     ecut=    50.00 Ry     beta= 0.60
     Davidson diagonalization with overlap
     ethr =  1.86E-04,  avg # of iterations =  5.8

     total cpu time spent up to now is    11096.2 secs

     total energy              =    -702.37896770 Ry
     Harris-Foulkes estimate   =    -702.55296447 Ry
     estimated scf accuracy    <       1.35306160 Ry

     iteration # 21     ecut=    50.00 Ry     beta= 0.60
     Davidson diagonalization with overlap
     ethr =  1.86E-04,  avg # of iterations =  5.4

     total cpu time spent up to now is    11233.8 secs

     total energy              =    -702.45050668 Ry
     Harris-Foulkes estimate   =    -702.45438714 Ry
     estimated scf accuracy    <       0.02184805 Ry

     iteration # 22     ecut=    50.00 Ry     beta= 0.60
     Davidson diagonalization with overlap
     c_bands:  1 eigenvalues not converged
     c_bands:  1 eigenvalues not converged
     ethr =  2.95E-05,  avg # of iterations =  3.4

     total cpu time spent up to now is    11327.0 secs

     total energy              =    -702.45201789 Ry
     Harris-Foulkes estimate   =    -702.45247232 Ry
     estimated scf accuracy    <       0.00255634 Ry

     iteration # 23     ecut=    50.00 Ry     beta= 0.60
     Davidson diagonalization with overlap
     c_bands:  1 eigenvalues not converged
     c_bands:  1 eigenvalues not converged
     c_bands:  1 eigenvalues not converged
     c_bands:  1 eigenvalues not converged
     c_bands:  1 eigenvalues not converged
     c_bands:  1 eigenvalues not converged
     c_bands:  1 eigenvalues not converged
     ethr =  3.45E-06,  avg # of iterations =  7.8

     total cpu time spent up to now is    11478.8 secs

     total energy              =    -702.45248329 Ry
     Harris-Foulkes estimate   =    -702.45276340 Ry
     estimated scf accuracy    <       0.00143112 Ry

     iteration # 24     ecut=    50.00 Ry     beta= 0.60
     Davidson diagonalization with overlap
     ethr =  1.93E-06,  avg # of iterations =  3.3

     total cpu time spent up to now is    11572.9 secs

     total energy              =    -702.45255804 Ry
     Harris-Foulkes estimate   =    -702.45273472 Ry
     estimated scf accuracy    <       0.00126759 Ry

     iteration # 25     ecut=    50.00 Ry     beta= 0.60
     Davidson diagonalization with overlap
     ethr =  1.71E-06,  avg # of iterations =  1.0

     total cpu time spent up to now is    11662.6 secs

     total energy              =    -702.45264882 Ry
     Harris-Foulkes estimate   =    -702.45266703 Ry
     estimated scf accuracy    <       0.00009665 Ry

     iteration # 26     ecut=    50.00 Ry     beta= 0.60
     Davidson diagonalization with overlap
     ethr =  1.31E-07,  avg # of iterations =  4.4

     total cpu time spent up to now is    11831.1 secs

     total energy              =    -702.45266021 Ry
     Harris-Foulkes estimate   =    -702.45267983 Ry
     estimated scf accuracy    <       0.00011582 Ry

     iteration # 27     ecut=    50.00 Ry     beta= 0.60
     Davidson diagonalization with overlap
     ethr =  1.31E-07,  avg # of iterations =  2.4

     total cpu time spent up to now is    11948.7 secs

     total energy              =    -702.45266660 Ry
     Harris-Foulkes estimate   =    -702.45267045 Ry
     estimated scf accuracy    <       0.00002049 Ry

     iteration # 28     ecut=    50.00 Ry     beta= 0.60
     Davidson diagonalization with overlap
     ethr =  2.77E-08,  avg # of iterations =  3.9

     total cpu time spent up to now is    12103.4 secs

     total energy              =    -702.45266998 Ry
     Harris-Foulkes estimate   =    -702.45267098 Ry
     estimated scf accuracy    <       0.00000632 Ry

     iteration # 29     ecut=    50.00 Ry     beta= 0.60
     Davidson diagonalization with overlap
     ethr =  8.55E-09,  avg # of iterations =  2.0

     total cpu time spent up to now is    12217.8 secs

     total energy              =    -702.45267026 Ry
     Harris-Foulkes estimate   =    -702.45267046 Ry
     estimated scf accuracy    <       0.00000125 Ry

     iteration # 30     ecut=    50.00 Ry     beta= 0.60
     Davidson diagonalization with overlap
     ethr =  1.69E-09,  avg # of iterations =  3.8

     total cpu time spent up to now is    12370.3 secs

     total energy              =    -702.45267039 Ry
     Harris-Foulkes estimate   =    -702.45267056 Ry
     estimated scf accuracy    <       0.00000147 Ry

     iteration # 31     ecut=    50.00 Ry     beta= 0.60
     Davidson diagonalization with overlap
     ethr =  1.69E-09,  avg # of iterations =  1.3

     total cpu time spent up to now is    12474.9 secs

     total energy              =    -702.45267042 Ry
     Harris-Foulkes estimate   =    -702.45267054 Ry
     estimated scf accuracy    <       0.00000065 Ry

     iteration # 32     ecut=    50.00 Ry     beta= 0.60
     Davidson diagonalization with overlap
     ethr =  8.78E-10,  avg # of iterations =  2.7

     total cpu time spent up to now is    12597.6 secs

     total energy              =    -702.45267049 Ry
     Harris-Foulkes estimate   =    -702.45267052 Ry
     estimated scf accuracy    <       0.00000023 Ry

     iteration # 33     ecut=    50.00 Ry     beta= 0.60
     Davidson diagonalization with overlap
     ethr =  3.07E-10,  avg # of iterations =  2.0

     total cpu time spent up to now is    12708.8 secs

     total energy              =    -702.45267050 Ry
     Harris-Foulkes estimate   =    -702.45267051 Ry
     estimated scf accuracy    <       0.00000003 Ry

     iteration # 34     ecut=    50.00 Ry     beta= 0.60
     Davidson diagonalization with overlap
