
     Program PWSCF v.6.0 (svn rev. 13079) starts on  8May2018 at 10:23:36 

     This program is part of the open-source Quantum ESPRESSO suite
     for quantum simulation of materials; please cite
         "P. Giannozzi et al., J. Phys.:Condens. Matter 21 395502 (2009);
          URL http://www.quantum-espresso.org", 
     in publications or presentations arising from this work. More details at
     http://www.quantum-espresso.org/quote

     Parallel version (MPI), running on     4 processors
     R & G space division:  proc/nbgrp/npool/nimage =       4
     Waiting for input...
     Reading input from standard input

     Current dimensions of program PWSCF are:
     Max number of different atomic species (ntypx) = 10
     Max number of k-points (npk) =  40000
     Max angular momentum in pseudopotentials (lmaxx) =  3

     Subspace diagonalization in iterative solution of the eigenvalue problem:
     a serial algorithm will be used


     Parallelization info
     --------------------
     sticks:   dense  smooth     PW     G-vecs:    dense   smooth      PW
     Min         684     273     94                27323     6899    1409
     Max         686     274     95                27324     6902    1410
     Sum        2741    1095    377               109295    27603    5639



     bravais-lattice index     =            0
     lattice parameter (alat)  =       1.8897  a.u.
     unit-cell volume          =     808.3427 (a.u.)^3
     number of atoms/cell      =            6
     number of atomic types    =            2
     number of electrons       =        75.00
     number of Kohn-Sham states=           46
     kinetic-energy cutoff     =      40.0000  Ry
     charge density cutoff     =     400.0000  Ry
     convergence threshold     =      1.0E-10
     mixing beta               =       0.6000
     number of iterations used =            8  plain     mixing
     Exchange-correlation      = SLA  PW   PBE  PBE ( 1  4  3  4 0 0)
     nstep                     =           50


     celldm(1)=   1.889726  celldm(2)=   0.000000  celldm(3)=   0.000000
     celldm(4)=   0.000000  celldm(5)=   0.000000  celldm(6)=   0.000000

     crystal axes: (cart. coord. in units of alat)
               a(1) = (   6.090008   5.274102   0.000000 )  
               a(2) = (  -7.612510  -2.637051   0.000000 )  
               a(3) = (   0.000000   0.000000   4.972461 )  

     reciprocal axes: (cart. coord. in units 2 pi/alat)
               b(1) = ( -0.109469  0.316010  0.000000 )  
               b(2) = ( -0.218938  0.252808  0.000000 )  
               b(3) = (  0.000000 -0.000000  0.201108 )  


     PseudoPot. # 1 for Nb read from file:
     ./Nb.pbe-nsp-van.UPF
     MD5 check sum: 0a22fc7fb0ba19a08ca5db297a5d2854
     Pseudo is Ultrasoft + core correction, Zval = 13.0
     Generated by new atomic code, or converted to UPF format
     Using radial grid of  887 points,  6 beta functions with: 
                l(1) =   0
                l(2) =   0
                l(3) =   1
                l(4) =   1
                l(5) =   2
                l(6) =   2
     Q(r) pseudized with  6 coefficients,  rinner =    1.000   1.000   1.000
                                                       1.000   1.000

     PseudoPot. # 2 for Ti read from file:
     ./Ti.pbe-sp-van_ak.UPF
     MD5 check sum: f98fea3e8887528921fefa5636a534ca
     Pseudo is Ultrasoft, Zval = 12.0
     Generated by new atomic code, or converted to UPF format
     Using radial grid of  851 points,  6 beta functions with: 
                l(1) =   0
                l(2) =   0
                l(3) =   1
                l(4) =   1
                l(5) =   2
                l(6) =   2
     Q(r) pseudized with  8 coefficients,  rinner =    1.000   1.000   1.000
                                                       1.000   1.000

     atomic species   valence    mass     pseudopotential
        Nb            13.00    92.90638     Nb( 1.00)
        Ti            12.00    47.86700     Ti( 1.00)

      4 Sym. Ops. (no inversion) found



   Cartesian axes

     site n.     atom                  positions (alat units)
         1           Ti  tau(   1) = (  -1.5225021   2.6370512   4.9724614  )
         2           Ti  tau(   2) = (  -1.5225006   0.8790162   2.4862307  )
         3           Nb  tau(   3) = (   1.5225021   2.6370512   4.9724614  )
         4           Ti  tau(   4) = (  -6.0900069  -1.7580350   2.4862307  )
         5           Nb  tau(   5) = (  -3.0450042   0.0000000   4.9724614  )
         6           Nb  tau(   6) = (   3.0450058   3.5160674   2.4862307  )

     number of k points=   248  Marzari-Vanderbilt smearing, width (Ry)=  0.0200

     Number of k-points >= 100: set verbosity='high' to print them.

     Dense  grid:   109295 G-vectors     FFT dimensions: ( 100, 100,  60)

     Smooth grid:    27603 G-vectors     FFT dimensions: (  64,  64,  40)

     Estimated max dynamical RAM per process >     179.71Mb

     Estimated total allocated dynamical RAM >     718.85Mb

     Initial potential from superposition of free atoms

     starting charge   71.99167, renormalised to   75.00000
     Starting wfc are   69 randomized atomic wfcs

     total cpu time spent up to now is       56.7 secs

     per-process dynamical memory:   247.0 Mb

     Self-consistent Calculation

     iteration #  1     ecut=    40.00 Ry     beta=0.60
     Davidson diagonalization with overlap
     ethr =  1.00E-02,  avg # of iterations =  4.6

     total cpu time spent up to now is      182.2 secs

     total energy              =    -630.85647909 Ry
     Harris-Foulkes estimate   =    -712.84541554 Ry
     estimated scf accuracy    <     100.54012882 Ry

     iteration #  2     ecut=    40.00 Ry     beta=0.60
     Davidson diagonalization with overlap
     ethr =  1.00E-02,  avg # of iterations =  8.5

     total cpu time spent up to now is      525.6 secs

     total energy              =    -660.46347138 Ry
     Harris-Foulkes estimate   =    -879.14556701 Ry
     estimated scf accuracy    <     777.49682167 Ry

     iteration #  3     ecut=    40.00 Ry     beta=0.60
     Davidson diagonalization with overlap
     ethr =  1.00E-02,  avg # of iterations =  7.5

     total cpu time spent up to now is      820.2 secs

     total energy              =    -707.67952477 Ry
     Harris-Foulkes estimate   =    -713.95127338 Ry
     estimated scf accuracy    <      44.78943752 Ry

     iteration #  4     ecut=    40.00 Ry     beta=0.60
     Davidson diagonalization with overlap
     ethr =  1.00E-02,  avg # of iterations =  2.5

     total cpu time spent up to now is      912.7 secs

     total energy              =    -705.76418337 Ry
     Harris-Foulkes estimate   =    -709.07853112 Ry
     estimated scf accuracy    <      50.41236408 Ry

     iteration #  5     ecut=    40.00 Ry     beta=0.60
     Davidson diagonalization with overlap
     ethr =  1.00E-02,  avg # of iterations =  1.9

     total cpu time spent up to now is      993.3 secs

     total energy              =    -705.75424187 Ry
     Harris-Foulkes estimate   =    -707.00124812 Ry
     estimated scf accuracy    <      28.67475786 Ry

     iteration #  6     ecut=    40.00 Ry     beta=0.60
     Davidson diagonalization with overlap
     ethr =  1.00E-02,  avg # of iterations =  1.0

     total cpu time spent up to now is     1072.4 secs

     total energy              =    -705.19061282 Ry
     Harris-Foulkes estimate   =    -705.89000549 Ry
     estimated scf accuracy    <      21.80372631 Ry

     iteration #  7     ecut=    40.00 Ry     beta=0.60
     Davidson diagonalization with overlap
     ethr =  1.00E-02,  avg # of iterations =  1.0

     total cpu time spent up to now is     1150.1 secs

     total energy              =    -705.16458123 Ry
     Harris-Foulkes estimate   =    -705.24402231 Ry
     estimated scf accuracy    <      18.80173038 Ry

     iteration #  8     ecut=    40.00 Ry     beta=0.60
     Davidson diagonalization with overlap
     ethr =  1.00E-02,  avg # of iterations =  1.0

     total cpu time spent up to now is     1227.7 secs

     total energy              =    -704.54542550 Ry
     Harris-Foulkes estimate   =    -705.18977178 Ry
     estimated scf accuracy    <      18.20491749 Ry

     iteration #  9     ecut=    40.00 Ry     beta=0.60
     Davidson diagonalization with overlap
     ethr =  1.00E-02,  avg # of iterations =  1.0

     total cpu time spent up to now is     1305.3 secs

     total energy              =    -703.72353183 Ry
     Harris-Foulkes estimate   =    -704.64872798 Ry
     estimated scf accuracy    <      14.97948509 Ry

     iteration # 10     ecut=    40.00 Ry     beta=0.60
     Davidson diagonalization with overlap
     ethr =  1.00E-02,  avg # of iterations =  1.1

     total cpu time spent up to now is     1383.6 secs

     total energy              =    -700.91286196 Ry
     Harris-Foulkes estimate   =    -703.81963039 Ry
     estimated scf accuracy    <      10.04157838 Ry

     iteration # 11     ecut=    40.00 Ry     beta=0.60
     Davidson diagonalization with overlap
     ethr =  1.00E-02,  avg # of iterations =  5.2

     total cpu time spent up to now is     1534.2 secs

     total energy              =    -707.54326647 Ry
     Harris-Foulkes estimate   =    -710.62991446 Ry
     estimated scf accuracy    <     118.72206859 Ry

     iteration # 12     ecut=    40.00 Ry     beta=0.60
     Davidson diagonalization with overlap
     ethr =  1.00E-02,  avg # of iterations =  1.0

     total cpu time spent up to now is     1611.7 secs

     total energy              =    -706.32103423 Ry
     Harris-Foulkes estimate   =    -707.67933530 Ry
     estimated scf accuracy    <      97.51612400 Ry

     iteration # 13     ecut=    40.00 Ry     beta=0.60
     Davidson diagonalization with overlap
     ethr =  1.00E-02,  avg # of iterations =  1.0

     total cpu time spent up to now is     1689.4 secs

     total energy              =    -707.62005647 Ry
     Harris-Foulkes estimate   =    -706.41761104 Ry
     estimated scf accuracy    <      80.74224527 Ry

     iteration # 14     ecut=    40.00 Ry     beta=0.60
     Davidson diagonalization with overlap
     ethr =  1.00E-02,  avg # of iterations =  1.0

     total cpu time spent up to now is     1767.3 secs

     total energy              =    -697.82264554 Ry
     Harris-Foulkes estimate   =    -707.67563448 Ry
     estimated scf accuracy    <      95.28732700 Ry

     iteration # 15     ecut=    40.00 Ry     beta=0.60
     Davidson diagonalization with overlap
     ethr =  1.00E-02,  avg # of iterations =  5.7

     total cpu time spent up to now is     1881.7 secs

     total energy              =    -703.73920190 Ry
     Harris-Foulkes estimate   =    -704.02719152 Ry
     estimated scf accuracy    <       4.74371150 Ry

     iteration # 16     ecut=    40.00 Ry     beta=0.60
     Davidson diagonalization with overlap
     ethr =  6.32E-03,  avg # of iterations =  1.5

     total cpu time spent up to now is     1961.0 secs

     total energy              =    -703.76435385 Ry
     Harris-Foulkes estimate   =    -703.81118951 Ry
     estimated scf accuracy    <       2.73914096 Ry

     iteration # 17     ecut=    40.00 Ry     beta=0.60
     Davidson diagonalization with overlap
     ethr =  3.65E-03,  avg # of iterations =  1.5

     total cpu time spent up to now is     2040.0 secs

     total energy              =    -703.74920353 Ry
     Harris-Foulkes estimate   =    -703.78175298 Ry
     estimated scf accuracy    <       2.42618934 Ry

     iteration # 18     ecut=    40.00 Ry     beta=0.60
     Davidson diagonalization with overlap
     ethr =  3.23E-03,  avg # of iterations =  1.2

     total cpu time spent up to now is     2118.4 secs

     total energy              =    -703.65178053 Ry
     Harris-Foulkes estimate   =    -703.76054671 Ry
     estimated scf accuracy    <       2.26146468 Ry

     iteration # 19     ecut=    40.00 Ry     beta=0.60
     Davidson diagonalization with overlap
     ethr =  3.02E-03,  avg # of iterations =  1.2

     total cpu time spent up to now is     2196.7 secs

     total energy              =    -703.62398059 Ry
     Harris-Foulkes estimate   =    -703.67589008 Ry
     estimated scf accuracy    <       1.05446341 Ry

     iteration # 20     ecut=    40.00 Ry     beta=0.60
     Davidson diagonalization with overlap
     ethr =  1.41E-03,  avg # of iterations =  2.1

     total cpu time spent up to now is     2278.1 secs

     total energy              =    -703.62018226 Ry
     Harris-Foulkes estimate   =    -703.64193539 Ry
     estimated scf accuracy    <       0.48057124 Ry

     iteration # 21     ecut=    40.00 Ry     beta=0.60
     Davidson diagonalization with overlap
     ethr =  6.41E-04,  avg # of iterations =  5.1

     total cpu time spent up to now is     2377.9 secs

     total energy              =    -703.64095904 Ry
     Harris-Foulkes estimate   =    -703.64583934 Ry
     estimated scf accuracy    <       0.10738584 Ry

     iteration # 22     ecut=    40.00 Ry     beta=0.60
     Davidson diagonalization with overlap
     ethr =  1.43E-04,  avg # of iterations =  6.1

     total cpu time spent up to now is     2487.9 secs

     total energy              =    -703.64320862 Ry
     Harris-Foulkes estimate   =    -703.64747957 Ry
     estimated scf accuracy    <       0.10590445 Ry

     iteration # 23     ecut=    40.00 Ry     beta=0.60
     Davidson diagonalization with overlap
     ethr =  1.41E-04,  avg # of iterations =  1.0

     total cpu time spent up to now is     2565.7 secs

     total energy              =    -703.64133458 Ry
     Harris-Foulkes estimate   =    -703.64534635 Ry
     estimated scf accuracy    <       0.03379122 Ry

     iteration # 24     ecut=    40.00 Ry     beta=0.60
     Davidson diagonalization with overlap
     ethr =  4.51E-05,  avg # of iterations =  5.7

     total cpu time spent up to now is     2701.3 secs

     total energy              =    -703.64002186 Ry
     Harris-Foulkes estimate   =    -703.65625077 Ry
     estimated scf accuracy    <       0.22497080 Ry

     iteration # 25     ecut=    40.00 Ry     beta=0.60
     Davidson diagonalization with overlap
     ethr =  4.51E-05,  avg # of iterations =  2.2

     total cpu time spent up to now is     2783.0 secs

     total energy              =    -703.63931224 Ry
     Harris-Foulkes estimate   =    -703.64315386 Ry
     estimated scf accuracy    <       0.09802623 Ry

     iteration # 26     ecut=    40.00 Ry     beta=0.60
     Davidson diagonalization with overlap
     ethr =  4.51E-05,  avg # of iterations =  4.0

     total cpu time spent up to now is     2880.6 secs

     total energy              =    -703.63957515 Ry
     Harris-Foulkes estimate   =    -703.64220248 Ry
     estimated scf accuracy    <       0.02796477 Ry

     iteration # 27     ecut=    40.00 Ry     beta=0.60
     Davidson diagonalization with overlap
     ethr =  3.73E-05,  avg # of iterations =  2.7

     total cpu time spent up to now is     2964.6 secs

     total energy              =    -703.64050616 Ry
     Harris-Foulkes estimate   =    -703.64070694 Ry
     estimated scf accuracy    <       0.00289706 Ry

     iteration # 28     ecut=    40.00 Ry     beta=0.60
     Davidson diagonalization with overlap
     ethr =  3.86E-06,  avg # of iterations =  6.7

     total cpu time spent up to now is     3104.8 secs

     total energy              =    -703.64105876 Ry
     Harris-Foulkes estimate   =    -703.64112286 Ry
     estimated scf accuracy    <       0.00040071 Ry

     iteration # 29     ecut=    40.00 Ry     beta=0.60
     Davidson diagonalization with overlap
     ethr =  5.34E-07,  avg # of iterations =  2.6

     total cpu time spent up to now is     3188.8 secs

     total energy              =    -703.64108978 Ry
     Harris-Foulkes estimate   =    -703.64109333 Ry
     estimated scf accuracy    <       0.00002657 Ry

     iteration # 30     ecut=    40.00 Ry     beta=0.60
     Davidson diagonalization with overlap
     ethr =  3.54E-08,  avg # of iterations =  5.1

     total cpu time spent up to now is     3319.7 secs

     total energy              =    -703.64109053 Ry
     Harris-Foulkes estimate   =    -703.64111172 Ry
     estimated scf accuracy    <       0.00019279 Ry

     iteration # 31     ecut=    40.00 Ry     beta=0.60
     Davidson diagonalization with overlap
     ethr =  3.54E-08,  avg # of iterations =  4.2

     total cpu time spent up to now is     3430.7 secs

     total energy              =    -703.64109932 Ry
     Harris-Foulkes estimate   =    -703.64110058 Ry
     estimated scf accuracy    <       0.00000752 Ry

     iteration # 32     ecut=    40.00 Ry     beta=0.60
     Davidson diagonalization with overlap
     ethr =  1.00E-08,  avg # of iterations =  4.5

     total cpu time spent up to now is     3538.6 secs

     total energy              =    -703.64109902 Ry
     Harris-Foulkes estimate   =    -703.64110163 Ry
     estimated scf accuracy    <       0.00002503 Ry

     iteration # 33     ecut=    40.00 Ry     beta=0.60
     Davidson diagonalization with overlap
     ethr =  1.00E-08,  avg # of iterations =  3.5

     total cpu time spent up to now is     3628.5 secs

     total energy              =    -703.64110012 Ry
     Harris-Foulkes estimate   =    -703.64110017 Ry
     estimated scf accuracy    <       0.00000064 Ry

     iteration # 34     ecut=    40.00 Ry     beta=0.60
     Davidson diagonalization with overlap
     ethr =  8.54E-10,  avg # of iterations =  4.8

     total cpu time spent up to now is     3747.4 secs

     total energy              =    -703.64110032 Ry
     Harris-Foulkes estimate   =    -703.64110034 Ry
     estimated scf accuracy    <       0.00000036 Ry

     iteration # 35     ecut=    40.00 Ry     beta=0.60
     Davidson diagonalization with overlap
     ethr =  4.84E-10,  avg # of iterations =  1.2

     total cpu time spent up to now is     3825.6 secs

     total energy              =    -703.64110032 Ry
     Harris-Foulkes estimate   =    -703.64110034 Ry
     estimated scf accuracy    <       0.00000013 Ry

     iteration # 36     ecut=    40.00 Ry     beta=0.60
     Davidson diagonalization with overlap
     ethr =  1.74E-10,  avg # of iterations =  1.9

     total cpu time spent up to now is     3906.4 secs

     total energy              =    -703.64110032 Ry
     Harris-Foulkes estimate   =    -703.64110033 Ry
     estimated scf accuracy    <       0.00000004 Ry

     iteration # 37     ecut=    40.00 Ry     beta=0.60
     Davidson diagonalization with overlap
     ethr =  4.96E-11,  avg # of iterations =  4.1

     total cpu time spent up to now is     4013.1 secs

     total energy              =    -703.64110033 Ry
     Harris-Foulkes estimate   =    -703.64110033 Ry
     estimated scf accuracy    <       0.00000002 Ry

     iteration # 38     ecut=    40.00 Ry     beta=0.60
     Davidson diagonalization with overlap
     ethr =  2.24E-11,  avg # of iterations =  1.2

     total cpu time spent up to now is     4091.2 secs

     total energy              =    -703.64110033 Ry
     Harris-Foulkes estimate   =    -703.64110033 Ry
     estimated scf accuracy    <          4.2E-09 Ry

     iteration # 39     ecut=    40.00 Ry     beta=0.60
     Davidson diagonalization with overlap
     ethr =  5.60E-12,  avg # of iterations =  3.7

     total cpu time spent up to now is     4186.6 secs

     total energy              =    -703.64110033 Ry
     Harris-Foulkes estimate   =    -703.64110033 Ry
     estimated scf accuracy    <          3.7E-10 Ry

     iteration # 40     ecut=    40.00 Ry     beta=0.60
     Davidson diagonalization with overlap
     ethr =  4.87E-13,  avg # of iterations =  5.0

     total cpu time spent up to now is     4317.6 secs

     total energy              =    -703.64110033 Ry
     Harris-Foulkes estimate   =    -703.64110033 Ry
     estimated scf accuracy    <          1.4E-09 Ry

     iteration # 41     ecut=    40.00 Ry     beta=0.60
     Davidson diagonalization with overlap
     ethr =  4.87E-13,  avg # of iterations =  3.6

     total cpu time spent up to now is     4413.9 secs

     End of self-consistent calculation

     Number of k-points >= 100: set verbosity='high' to print the bands.

     the Fermi energy is    13.8242 ev

!    total energy              =    -703.64110033 Ry
     Harris-Foulkes estimate   =    -703.64110033 Ry
     estimated scf accuracy    <          7.5E-11 Ry

     The total energy is the sum of the following terms:

     one-electron contribution =    -205.08607019 Ry
     hartree contribution      =     127.92198784 Ry
     xc contribution           =     -98.25445942 Ry
     ewald contribution        =    -528.21752171 Ry
     smearing contrib. (-TS)   =      -0.00503685 Ry

     convergence has been achieved in  41 iterations

     Forces acting on atoms (Ry/au):

     atom    1 type  2   force =    -0.00261843   -0.00151175    0.00000000
     atom    2 type  2   force =     0.00188701    0.00108947    0.00000000
     atom    3 type  1   force =    -0.00264926   -0.00152955    0.00000000
     atom    4 type  2   force =    -0.00046362   -0.00026767    0.00000000
     atom    5 type  1   force =     0.00557487    0.00321865    0.00000000
     atom    6 type  1   force =    -0.00173057   -0.00099915    0.00000000

     Total force =     0.008305     Total SCF correction =     0.000017


     entering subroutine stress ...

          total   stress  (Ry/bohr**3)                   (kbar)     P= -122.66
  -0.00086115   0.00002950   0.00000000       -126.68      4.34      0.00
   0.00002950  -0.00089521   0.00000000          4.34   -131.69      0.00
   0.00000000   0.00000000  -0.00074511          0.00      0.00   -109.61


     BFGS Geometry Optimization

     number of scf cycles    =   1
     number of bfgs steps    =   0

     enthalpy new            =    -703.6411003273 Ry

     new trust radius        =       0.1273292456 bohr
     new conv_thr            =            1.0E-10 Ry

     new unit-cell volume =    758.83461 a.u.^3 (   112.44769 Ang^3 )

CELL_PARAMETERS (alat=  1.88972599)
   5.962786959   5.160557197   0.000000000
  -7.450566788  -2.583646756   0.000000000
   0.000000000   0.000000000   4.879835446

ATOMIC_POSITIONS (angstrom)
Ti      -1.489136205   2.576127338   4.879835446
Ti      -1.488097253   0.858785164   2.439917723
Nb       1.490296700   2.578363557   4.879835446
Ti      -5.960432818  -1.723319163   2.439917723
Nb      -2.976561034  -0.000578144   4.879835446
Nb       2.981146717   3.439104559   2.439917723


     NEW-OLD atomic charge density approx. for the potential

     Check: negative/imaginary core charge=   -0.000001    0.000000
     extrapolated charge   70.30310, renormalised to   75.00000

     total cpu time spent up to now is     4451.6 secs

     per-process dynamical memory:   271.9 Mb

     Self-consistent Calculation

     iteration #  1     ecut=    40.00 Ry     beta=0.60
     Davidson diagonalization with overlap
     c_bands:  1 eigenvalues not converged
     c_bands:  1 eigenvalues not converged
     c_bands:  2 eigenvalues not converged
     c_bands:  1 eigenvalues not converged
     c_bands:  1 eigenvalues not converged
     c_bands:  1 eigenvalues not converged
     c_bands:  1 eigenvalues not converged
     c_bands:  1 eigenvalues not converged
     c_bands:  1 eigenvalues not converged
     c_bands:  1 eigenvalues not converged
     c_bands:  1 eigenvalues not converged
     c_bands:  1 eigenvalues not converged
     c_bands:  1 eigenvalues not converged
     c_bands:  1 eigenvalues not converged
     c_bands:  1 eigenvalues not converged
     c_bands:  1 eigenvalues not converged
     c_bands:  1 eigenvalues not converged
     c_bands:  1 eigenvalues not converged
     c_bands:  1 eigenvalues not converged
     c_bands:  1 eigenvalues not converged
     c_bands:  1 eigenvalues not converged
     c_bands:  1 eigenvalues not converged
     c_bands:  1 eigenvalues not converged
     c_bands:  2 eigenvalues not converged
     c_bands:  2 eigenvalues not converged
     c_bands:  1 eigenvalues not converged
     c_bands:  1 eigenvalues not converged
     c_bands:  1 eigenvalues not converged
     c_bands:  1 eigenvalues not converged
     c_bands:  2 eigenvalues not converged
     c_bands:  1 eigenvalues not converged
     c_bands:  1 eigenvalues not converged
     c_bands:  1 eigenvalues not converged
     c_bands:  2 eigenvalues not converged
     c_bands:  1 eigenvalues not converged
     c_bands:  1 eigenvalues not converged
     c_bands:  1 eigenvalues not converged
     c_bands:  1 eigenvalues not converged
     c_bands:  2 eigenvalues not converged
     c_bands:  1 eigenvalues not converged
     c_bands:  1 eigenvalues not converged
     c_bands:  1 eigenvalues not converged
     c_bands:  1 eigenvalues not converged
     c_bands:  1 eigenvalues not converged
     c_bands:  1 eigenvalues not converged
     c_bands:  1 eigenvalues not converged
     c_bands:  1 eigenvalues not converged
     c_bands:  1 eigenvalues not converged
     c_bands:  1 eigenvalues not converged
     c_bands:  1 eigenvalues not converged
     c_bands:  1 eigenvalues not converged
     c_bands:  2 eigenvalues not converged
     c_bands:  1 eigenvalues not converged
     c_bands:  1 eigenvalues not converged
     c_bands:  1 eigenvalues not converged
     c_bands:  1 eigenvalues not converged
     c_bands:  1 eigenvalues not converged
     c_bands:  1 eigenvalues not converged
     c_bands:  1 eigenvalues not converged
     c_bands:  1 eigenvalues not converged
     c_bands:  3 eigenvalues not converged
     c_bands:  3 eigenvalues not converged
     c_bands:  1 eigenvalues not converged
     c_bands:  1 eigenvalues not converged
     c_bands:  1 eigenvalues not converged
     c_bands:  1 eigenvalues not converged
     c_bands:  1 eigenvalues not converged
     c_bands:  1 eigenvalues not converged
     c_bands:  3 eigenvalues not converged
     c_bands:  2 eigenvalues not converged
     c_bands:  2 eigenvalues not converged
     c_bands:  2 eigenvalues not converged
     c_bands:  2 eigenvalues not converged
     c_bands:  1 eigenvalues not converged
     c_bands:  1 eigenvalues not converged
     ethr =  1.00E-06,  avg # of iterations = 16.5

     total cpu time spent up to now is     4841.5 secs

     total energy              =    -700.44351934 Ry
     Harris-Foulkes estimate   =    -712.44987572 Ry
     estimated scf accuracy    <       3.13509716 Ry

     iteration #  2     ecut=    40.00 Ry     beta=0.60
     Davidson diagonalization with overlap
     ethr =  4.18E-03,  avg # of iterations =  5.4

     total cpu time spent up to now is     5044.2 secs

     total energy              =    -702.54745624 Ry
     Harris-Foulkes estimate   =    -707.41236723 Ry
     estimated scf accuracy    <      17.07566119 Ry

     iteration #  3     ecut=    40.00 Ry     beta=0.60
     Davidson diagonalization with overlap
     ethr =  4.18E-03,  avg # of iterations =  4.9

     total cpu time spent up to now is     5190.6 secs

     total energy              =    -702.73333379 Ry
     Harris-Foulkes estimate   =    -705.22025103 Ry
     estimated scf accuracy    <      14.23510401 Ry

     iteration #  4     ecut=    40.00 Ry     beta=0.60
     Davidson diagonalization with overlap
     ethr =  4.18E-03,  avg # of iterations =  4.6

     total cpu time spent up to now is     5305.3 secs

     total energy              =    -703.57531790 Ry
     Harris-Foulkes estimate   =    -704.54934981 Ry
     estimated scf accuracy    <       8.62519338 Ry

     iteration #  5     ecut=    40.00 Ry     beta=0.60
     Davidson diagonalization with overlap
     ethr =  4.18E-03,  avg # of iterations =  2.3

     total cpu time spent up to now is     5388.6 secs

     total energy              =    -703.77244999 Ry
     Harris-Foulkes estimate   =    -704.00270206 Ry
     estimated scf accuracy    <       1.93677335 Ry

     iteration #  6     ecut=    40.00 Ry     beta=0.60
     Davidson diagonalization with overlap
     ethr =  2.58E-03,  avg # of iterations =  1.9

     total cpu time spent up to now is     5469.7 secs

     total energy              =    -703.75994101 Ry
     Harris-Foulkes estimate   =    -703.85060297 Ry
     estimated scf accuracy    <       1.23841913 Ry

     iteration #  7     ecut=    40.00 Ry     beta=0.60
     Davidson diagonalization with overlap
     ethr =  1.65E-03,  avg # of iterations =  1.0

     total cpu time spent up to now is     5547.2 secs

     total energy              =    -703.71202760 Ry
     Harris-Foulkes estimate   =    -703.78725803 Ry
     estimated scf accuracy    <       0.96011191 Ry

     iteration #  8     ecut=    40.00 Ry     beta=0.60
     Davidson diagonalization with overlap
     ethr =  1.28E-03,  avg # of iterations =  1.1

     total cpu time spent up to now is     5624.8 secs

     total energy              =    -703.65529537 Ry
     Harris-Foulkes estimate   =    -703.72881164 Ry
     estimated scf accuracy    <       0.49449620 Ry

     iteration #  9     ecut=    40.00 Ry     beta=0.60
     Davidson diagonalization with overlap
     ethr =  6.59E-04,  avg # of iterations =  3.5

     total cpu time spent up to now is     5720.8 secs

     total energy              =    -703.68280847 Ry
     Harris-Foulkes estimate   =    -703.68278340 Ry
     estimated scf accuracy    <       0.10275035 Ry

     iteration # 10     ecut=    40.00 Ry     beta=0.60
     Davidson diagonalization with overlap
     ethr =  1.37E-04,  avg # of iterations =  6.0

     total cpu time spent up to now is     5878.3 secs

     total energy              =    -703.64204661 Ry
     Harris-Foulkes estimate   =    -703.69209454 Ry
     estimated scf accuracy    <       0.10685617 Ry

     iteration # 11     ecut=    40.00 Ry     beta=0.60
     Davidson diagonalization with overlap
     ethr =  1.37E-04,  avg # of iterations =  5.8

     total cpu time spent up to now is     6022.5 secs

     total energy              =    -703.65006906 Ry
     Harris-Foulkes estimate   =    -703.68612895 Ry
     estimated scf accuracy    <       0.27151939 Ry

     iteration # 12     ecut=    40.00 Ry     beta=0.60
     Davidson diagonalization with overlap
     ethr =  1.37E-04,  avg # of iterations =  3.6

     total cpu time spent up to now is     6114.3 secs

     total energy              =    -703.67054068 Ry
     Harris-Foulkes estimate   =    -703.67160523 Ry
     estimated scf accuracy    <       0.01764849 Ry

     iteration # 13     ecut=    40.00 Ry     beta=0.60
     Davidson diagonalization with overlap
     ethr =  2.35E-05,  avg # of iterations =  6.4

     total cpu time spent up to now is     6242.4 secs

     total energy              =    -703.67229759 Ry
     Harris-Foulkes estimate   =    -703.67347863 Ry
     estimated scf accuracy    <       0.02321540 Ry

     iteration # 14     ecut=    40.00 Ry     beta=0.60
     Davidson diagonalization with overlap
     ethr =  2.35E-05,  avg # of iterations =  1.1

     total cpu time spent up to now is     6321.0 secs

     total energy              =    -703.67204367 Ry
     Harris-Foulkes estimate   =    -703.67251814 Ry
     estimated scf accuracy    <       0.01167261 Ry

     iteration # 15     ecut=    40.00 Ry     beta=0.60
     Davidson diagonalization with overlap
     ethr =  1.56E-05,  avg # of iterations =  1.1

     total cpu time spent up to now is     6399.4 secs

     total energy              =    -703.67162825 Ry
     Harris-Foulkes estimate   =    -703.67217365 Ry
     estimated scf accuracy    <       0.00556262 Ry

     iteration # 16     ecut=    40.00 Ry     beta=0.60
     Davidson diagonalization with overlap
     ethr =  7.42E-06,  avg # of iterations =  3.3

     total cpu time spent up to now is     6487.2 secs

     total energy              =    -703.67188457 Ry
     Harris-Foulkes estimate   =    -703.67191797 Ry
     estimated scf accuracy    <       0.00016369 Ry

     iteration # 17     ecut=    40.00 Ry     beta=0.60
     Davidson diagonalization with overlap
     c_bands:  2 eigenvalues not converged
     ethr =  2.18E-07,  avg # of iterations =  5.8

     total cpu time spent up to now is     6641.5 secs

     total energy              =    -703.67206278 Ry
     Harris-Foulkes estimate   =    -703.67209830 Ry
     estimated scf accuracy    <       0.00082445 Ry

     iteration # 18     ecut=    40.00 Ry     beta=0.60
     Davidson diagonalization with overlap
     ethr =  2.18E-07,  avg # of iterations =  1.0

     total cpu time spent up to now is     6720.6 secs

     total energy              =    -703.67205031 Ry
     Harris-Foulkes estimate   =    -703.67206734 Ry
     estimated scf accuracy    <       0.00051547 Ry

     iteration # 19     ecut=    40.00 Ry     beta=0.60
     Davidson diagonalization with overlap
     ethr =  2.18E-07,  avg # of iterations =  1.5

     total cpu time spent up to now is     6800.4 secs

     total energy              =    -703.67203807 Ry
     Harris-Foulkes estimate   =    -703.67205426 Ry
     estimated scf accuracy    <       0.00028056 Ry

     iteration # 20     ecut=    40.00 Ry     beta=0.60
     Davidson diagonalization with overlap
     ethr =  2.18E-07,  avg # of iterations =  1.1

     total cpu time spent up to now is     6878.5 secs

     total energy              =    -703.67202279 Ry
     Harris-Foulkes estimate   =    -703.67204192 Ry
     estimated scf accuracy    <       0.00010827 Ry

     iteration # 21     ecut=    40.00 Ry     beta=0.60
     Davidson diagonalization with overlap
     ethr =  1.44E-07,  avg # of iterations =  3.8

     total cpu time spent up to now is     6982.0 secs

     total energy              =    -703.67203936 Ry
     Harris-Foulkes estimate   =    -703.67204614 Ry
     estimated scf accuracy    <       0.00006592 Ry

     iteration # 22     ecut=    40.00 Ry     beta=0.60
     Davidson diagonalization with overlap
     ethr =  8.79E-08,  avg # of iterations =  1.0

     total cpu time spent up to now is     7060.3 secs

     total energy              =    -703.67204002 Ry
     Harris-Foulkes estimate   =    -703.67204141 Ry
     estimated scf accuracy    <       0.00000952 Ry

     iteration # 23     ecut=    40.00 Ry     beta=0.60
     Davidson diagonalization with overlap
     ethr =  1.27E-08,  avg # of iterations =  4.0

     total cpu time spent up to now is     7169.7 secs

     total energy              =    -703.67204180 Ry
     Harris-Foulkes estimate   =    -703.67204226 Ry
     estimated scf accuracy    <       0.00000377 Ry

     iteration # 24     ecut=    40.00 Ry     beta=0.60
     Davidson diagonalization with overlap
     ethr =  5.03E-09,  avg # of iterations =  1.1

     total cpu time spent up to now is     7247.6 secs

     total energy              =    -703.67204192 Ry
     Harris-Foulkes estimate   =    -703.67204194 Ry
     estimated scf accuracy    <       0.00000045 Ry

     iteration # 25     ecut=    40.00 Ry     beta=0.60
     Davidson diagonalization with overlap
     ethr =  5.98E-10,  avg # of iterations =  4.1

     total cpu time spent up to now is     7355.5 secs

     total energy              =    -703.67204199 Ry
     Harris-Foulkes estimate   =    -703.67204199 Ry
     estimated scf accuracy    <       0.00000001 Ry

     iteration # 26     ecut=    40.00 Ry     beta=0.60
     Davidson diagonalization with overlap
     ethr =  1.90E-11,  avg # of iterations =  4.2

     total cpu time spent up to now is     7466.1 secs

     total energy              =    -703.67204199 Ry
     Harris-Foulkes estimate   =    -703.67204200 Ry
     estimated scf accuracy    <       0.00000006 Ry

     iteration # 27     ecut=    40.00 Ry     beta=0.60
     Davidson diagonalization with overlap
     ethr =  1.90E-11,  avg # of iterations =  1.1

     total cpu time spent up to now is     7565.8 secs

     total energy              =    -703.67204199 Ry
     Harris-Foulkes estimate   =    -703.67204199 Ry
     estimated scf accuracy    <       0.00000003 Ry

     iteration # 28     ecut=    40.00 Ry     beta=0.60
     Davidson diagonalization with overlap
     ethr =  1.90E-11,  avg # of iterations =  3.1

     total cpu time spent up to now is     7683.0 secs

     total energy              =    -703.67204199 Ry
     Harris-Foulkes estimate   =    -703.67204199 Ry
     estimated scf accuracy    <          1.0E-09 Ry

     iteration # 29     ecut=    40.00 Ry     beta=0.60
     Davidson diagonalization with overlap
     ethr =  1.36E-12,  avg # of iterations =  4.0

     total cpu time spent up to now is     7798.7 secs

     total energy              =    -703.67204199 Ry
     Harris-Foulkes estimate   =    -703.67204199 Ry
     estimated scf accuracy    <          3.4E-10 Ry

     iteration # 30     ecut=    40.00 Ry     beta=0.60
     Davidson diagonalization with overlap
     ethr =  4.47E-13,  avg # of iterations =  2.1

     total cpu time spent up to now is     7882.3 secs

     total energy              =    -703.67204199 Ry
     Harris-Foulkes estimate   =    -703.67204199 Ry
     estimated scf accuracy    <          1.6E-10 Ry

     iteration # 31     ecut=    40.00 Ry     beta=0.60
     Davidson diagonalization with overlap
     ethr =  2.18E-13,  avg # of iterations =  3.4

     total cpu time spent up to now is     7977.1 secs

     End of self-consistent calculation

     Number of k-points >= 100: set verbosity='high' to print the bands.

     the Fermi energy is    14.8970 ev

!    total energy              =    -703.67204199 Ry
     Harris-Foulkes estimate   =    -703.67204199 Ry
     estimated scf accuracy    <          1.4E-11 Ry

     The total energy is the sum of the following terms:

     one-electron contribution =    -188.57800203 Ry
     hartree contribution      =     122.97972331 Ry
     xc contribution           =     -98.58221182 Ry
     ewald contribution        =    -539.48716601 Ry
     smearing contrib. (-TS)   =      -0.00438545 Ry

     convergence has been achieved in  31 iterations

     Forces acting on atoms (Ry/au):

     atom    1 type  2   force =    -0.00250212   -0.00144460    0.00000000
     atom    2 type  2   force =     0.00468250    0.00270344    0.00000000
     atom    3 type  1   force =    -0.00665872   -0.00384441    0.00000000
     atom    4 type  2   force =    -0.00384762   -0.00222142    0.00000000
     atom    5 type  1   force =     0.01069615    0.00617542    0.00000000
     atom    6 type  1   force =    -0.00237018   -0.00136842    0.00000000

     Total force =     0.016627     Total SCF correction =     0.000016


     entering subroutine stress ...

          total   stress  (Ry/bohr**3)                   (kbar)     P=  -55.35
  -0.00041208   0.00002846   0.00000000        -60.62      4.19      0.00
   0.00002846  -0.00044494   0.00000000          4.19    -65.45      0.00
   0.00000000   0.00000000  -0.00027181          0.00      0.00    -39.98


     number of scf cycles    =   2
     number of bfgs steps    =   1

     enthalpy old            =    -703.6411003273 Ry
     enthalpy new            =    -703.6720419931 Ry

     CASE: enthalpy_new < enthalpy_old

     new trust radius        =       0.1104456444 bohr
     new conv_thr            =            1.0E-10 Ry

     new unit-cell volume =    720.95141 a.u.^3 (   106.83397 Ang^3 )

CELL_PARAMETERS (alat=  1.88972599)
   5.859055627   5.065019391   0.000000000
  -7.315962949  -2.541581697   0.000000000
   0.000000000   0.000000000   4.820109706

ATOMIC_POSITIONS (angstrom)
Ti      -1.460492988   2.521367509   4.820109706
Ti      -1.455254396   0.842098533   2.410054853
Nb       1.460086553   2.525273224   4.820109706
Ti      -5.855731524  -1.698518310   2.410054853
Nb      -2.911883840   0.001114751   4.820109706
Nb       2.928268518   3.372926857   2.410054853


     NEW-OLD atomic charge density approx. for the potential

     Check: negative/imaginary core charge=   -0.000001    0.000000
     extrapolated charge   71.21712, renormalised to   75.00000

     total cpu time spent up to now is     8014.8 secs

     per-process dynamical memory:   271.9 Mb

     Self-consistent Calculation

     iteration #  1     ecut=    40.00 Ry     beta=0.60
     Davidson diagonalization with overlap
     c_bands:  1 eigenvalues not converged
     c_bands:  1 eigenvalues not converged
     c_bands:  1 eigenvalues not converged
     c_bands:  1 eigenvalues not converged
     c_bands:  1 eigenvalues not converged
     c_bands:  1 eigenvalues not converged
     c_bands:  1 eigenvalues not converged
     c_bands:  1 eigenvalues not converged
     c_bands:  1 eigenvalues not converged
     c_bands:  1 eigenvalues not converged
     c_bands:  1 eigenvalues not converged
     c_bands:  1 eigenvalues not converged
     c_bands:  1 eigenvalues not converged
     c_bands:  1 eigenvalues not converged
     c_bands:  1 eigenvalues not converged
     c_bands:  1 eigenvalues not converged
     c_bands:  1 eigenvalues not converged
     c_bands:  1 eigenvalues not converged
     c_bands:  1 eigenvalues not converged
     c_bands:  1 eigenvalues not converged
     c_bands:  1 eigenvalues not converged
     c_bands:  1 eigenvalues not converged
     c_bands:  1 eigenvalues not converged
     c_bands:  1 eigenvalues not converged
     c_bands:  1 eigenvalues not converged
     c_bands:  1 eigenvalues not converged
     c_bands:  1 eigenvalues not converged
     c_bands:  1 eigenvalues not converged
     c_bands:  1 eigenvalues not converged
     c_bands:  1 eigenvalues not converged
     c_bands:  1 eigenvalues not converged
     c_bands:  1 eigenvalues not converged
     c_bands:  1 eigenvalues not converged
     c_bands:  1 eigenvalues not converged
     c_bands:  1 eigenvalues not converged
     c_bands:  1 eigenvalues not converged
     c_bands:  1 eigenvalues not converged
     c_bands:  2 eigenvalues not converged
     c_bands:  1 eigenvalues not converged
     c_bands:  1 eigenvalues not converged
     c_bands:  1 eigenvalues not converged
     c_bands:  1 eigenvalues not converged
     c_bands:  1 eigenvalues not converged
     c_bands:  2 eigenvalues not converged
     c_bands:  2 eigenvalues not converged
     c_bands:  1 eigenvalues not converged
     c_bands:  1 eigenvalues not converged
     c_bands:  2 eigenvalues not converged
     c_bands:  1 eigenvalues not converged
     c_bands:  1 eigenvalues not converged
     c_bands:  2 eigenvalues not converged
     ethr =  1.00E-06,  avg # of iterations = 15.2

     total cpu time spent up to now is     8405.7 secs

     total energy              =    -702.07324557 Ry
     Harris-Foulkes estimate   =    -710.21163852 Ry
     estimated scf accuracy    <       1.49305866 Ry

     iteration #  2     ecut=    40.00 Ry     beta=0.60
     Davidson diagonalization with overlap
     ethr =  1.99E-03,  avg # of iterations =  5.2

     total cpu time spent up to now is     8612.7 secs

     total energy              =    -703.03191379 Ry
     Harris-Foulkes estimate   =    -705.47405196 Ry
     estimated scf accuracy    <       8.89928027 Ry

     iteration #  3     ecut=    40.00 Ry     beta=0.60
     Davidson diagonalization with overlap
     ethr =  1.99E-03,  avg # of iterations =  4.9

     total cpu time spent up to now is     8766.4 secs

     total energy              =    -703.29413964 Ry
     Harris-Foulkes estimate   =    -704.27506408 Ry
     estimated scf accuracy    <       4.76588094 Ry

     iteration #  4     ecut=    40.00 Ry     beta=0.60
     Davidson diagonalization with overlap
     ethr =  1.99E-03,  avg # of iterations =  4.6

     total cpu time spent up to now is     8879.2 secs

     total energy              =    -703.61344183 Ry
     Harris-Foulkes estimate   =    -704.08168587 Ry
     estimated scf accuracy    <       4.51082938 Ry

     iteration #  5     ecut=    40.00 Ry     beta=0.60
     Davidson diagonalization with overlap
     ethr =  1.99E-03,  avg # of iterations =  2.2

     total cpu time spent up to now is     8961.6 secs

     total energy              =    -703.72318844 Ry
     Harris-Foulkes estimate   =    -703.81007427 Ry
     estimated scf accuracy    <       0.89997843 Ry

     iteration #  6     ecut=    40.00 Ry     beta=0.60
     Davidson diagonalization with overlap
     ethr =  1.20E-03,  avg # of iterations =  2.0

     total cpu time spent up to now is     9043.4 secs

     total energy              =    -703.70106993 Ry
     Harris-Foulkes estimate   =    -703.75828903 Ry
     estimated scf accuracy    <       0.58509703 Ry

     iteration #  7     ecut=    40.00 Ry     beta=0.60
     Davidson diagonalization with overlap
     ethr =  7.80E-04,  avg # of iterations =  1.2

     total cpu time spent up to now is     9122.6 secs

     total energy              =    -703.68280855 Ry
     Harris-Foulkes estimate   =    -703.71587248 Ry
     estimated scf accuracy    <       0.37657876 Ry

     iteration #  8     ecut=    40.00 Ry     beta=0.60
     Davidson diagonalization with overlap
     ethr =  5.02E-04,  avg # of iterations =  2.3

     total cpu time spent up to now is     9205.7 secs

     total energy              =    -703.68224173 Ry
     Harris-Foulkes estimate   =    -703.69482684 Ry
     estimated scf accuracy    <       0.13679111 Ry

     iteration #  9     ecut=    40.00 Ry     beta=0.60
     Davidson diagonalization with overlap
     ethr =  1.82E-04,  avg # of iterations =  4.9

     total cpu time spent up to now is     9317.5 secs

     total energy              =    -703.68347421 Ry
     Harris-Foulkes estimate   =    -703.68926741 Ry
     estimated scf accuracy    <       0.06935299 Ry

     iteration # 10     ecut=    40.00 Ry     beta=0.60
     Davidson diagonalization with overlap
     ethr =  9.25E-05,  avg # of iterations =  3.0

     total cpu time spent up to now is     9408.0 secs

     total energy              =    -703.66918176 Ry
     Harris-Foulkes estimate   =    -703.68545060 Ry
     estimated scf accuracy    <       0.04070326 Ry

     iteration # 11     ecut=    40.00 Ry     beta=0.60
     Davidson diagonalization with overlap
     ethr =  5.43E-05,  avg # of iterations =  5.8

     total cpu time spent up to now is     9552.0 secs

     total energy              =    -703.67622841 Ry
     Harris-Foulkes estimate   =    -703.68147148 Ry
     estimated scf accuracy    <       0.04021208 Ry

     iteration # 12     ecut=    40.00 Ry     beta=0.60
     Davidson diagonalization with overlap
     ethr =  5.36E-05,  avg # of iterations =  1.0

     total cpu time spent up to now is     9630.0 secs

     total energy              =    -703.67851039 Ry
     Harris-Foulkes estimate   =    -703.67864683 Ry
     estimated scf accuracy    <       0.00067103 Ry

     iteration # 13     ecut=    40.00 Ry     beta=0.60
     Davidson diagonalization with overlap
     ethr =  8.95E-07,  avg # of iterations =  6.3

     total cpu time spent up to now is     9811.6 secs

     total energy              =    -703.67917623 Ry
     Harris-Foulkes estimate   =    -703.67947445 Ry
     estimated scf accuracy    <       0.00315657 Ry

     iteration # 14     ecut=    40.00 Ry     beta=0.60
     Davidson diagonalization with overlap
     ethr =  8.95E-07,  avg # of iterations =  2.9

     total cpu time spent up to now is     9897.7 secs

     total energy              =    -703.67919725 Ry
     Harris-Foulkes estimate   =    -703.67925393 Ry
     estimated scf accuracy    <       0.00069461 Ry

     iteration # 15     ecut=    40.00 Ry     beta=0.60
     Davidson diagonalization with overlap
     ethr =  8.95E-07,  avg # of iterations =  2.9

     total cpu time spent up to now is     9985.5 secs

     total energy              =    -703.67922807 Ry
     Harris-Foulkes estimate   =    -703.67923639 Ry
     estimated scf accuracy    <       0.00004625 Ry

     iteration # 16     ecut=    40.00 Ry     beta=0.60
     Davidson diagonalization with overlap
     ethr =  6.17E-08,  avg # of iterations =  4.9

     total cpu time spent up to now is    10106.8 secs

     total energy              =    -703.67924175 Ry
     Harris-Foulkes estimate   =    -703.67924602 Ry
     estimated scf accuracy    <       0.00005170 Ry

     iteration # 17     ecut=    40.00 Ry     beta=0.60
     Davidson diagonalization with overlap
     ethr =  6.17E-08,  avg # of iterations =  1.0

     total cpu time spent up to now is    10184.5 secs

     total energy              =    -703.67924096 Ry
     Harris-Foulkes estimate   =    -703.67924272 Ry
     estimated scf accuracy    <       0.00001749 Ry

     iteration # 18     ecut=    40.00 Ry     beta=0.60
     Davidson diagonalization with overlap
     ethr =  2.33E-08,  avg # of iterations =  2.9

     total cpu time spent up to now is    10275.5 secs

     total energy              =    -703.67924215 Ry
     Harris-Foulkes estimate   =    -703.67924227 Ry
     estimated scf accuracy    <       0.00000098 Ry

     iteration # 19     ecut=    40.00 Ry     beta=0.60
     Davidson diagonalization with overlap
     ethr =  1.31E-09,  avg # of iterations =  4.6

     total cpu time spent up to now is    10390.4 secs

     total energy              =    -703.67924227 Ry
     Harris-Foulkes estimate   =    -703.67924242 Ry
     estimated scf accuracy    <       0.00000128 Ry

     iteration # 20     ecut=    40.00 Ry     beta=0.60
     Davidson diagonalization with overlap
     ethr =  1.31E-09,  avg # of iterations =  1.1

     total cpu time spent up to now is    10468.4 secs

     total energy              =    -703.67924229 Ry
     Harris-Foulkes estimate   =    -703.67924233 Ry
     estimated scf accuracy    <       0.00000014 Ry

     iteration # 21     ecut=    40.00 Ry     beta=0.60
     Davidson diagonalization with overlap
     ethr =  1.91E-10,  avg # of iterations =  4.4

     total cpu time spent up to now is    10586.4 secs

     total energy              =    -703.67924231 Ry
     Harris-Foulkes estimate   =    -703.67924237 Ry
     estimated scf accuracy    <       0.00000036 Ry

     iteration # 22     ecut=    40.00 Ry     beta=0.60
     Davidson diagonalization with overlap
     ethr =  1.91E-10,  avg # of iterations =  3.6

     total cpu time spent up to now is    10684.1 secs

     total energy              =    -703.67924234 Ry
     Harris-Foulkes estimate   =    -703.67924234 Ry
     estimated scf accuracy    <          5.7E-09 Ry

     iteration # 23     ecut=    40.00 Ry     beta=0.60
     Davidson diagonalization with overlap
     ethr =  7.59E-12,  avg # of iterations =  4.2

     total cpu time spent up to now is    10795.5 secs

     total energy              =    -703.67924234 Ry
     Harris-Foulkes estimate   =    -703.67924234 Ry
     estimated scf accuracy    <          2.8E-09 Ry

     iteration # 24     ecut=    40.00 Ry     beta=0.60
     Davidson diagonalization with overlap
     ethr =  3.75E-12,  avg # of iterations =  1.6

     total cpu time spent up to now is    10875.3 secs

     total energy              =    -703.67924234 Ry
     Harris-Foulkes estimate   =    -703.67924234 Ry
     estimated scf accuracy    <          6.9E-10 Ry

     iteration # 25     ecut=    40.00 Ry     beta=0.60
     Davidson diagonalization with overlap
     ethr =  9.24E-13,  avg # of iterations =  3.7

     total cpu time spent up to now is    10974.2 secs

     total energy              =    -703.67924234 Ry
     Harris-Foulkes estimate   =    -703.67924234 Ry
     estimated scf accuracy    <          2.0E-10 Ry

     iteration # 26     ecut=    40.00 Ry     beta=0.60
     Davidson diagonalization with overlap
     ethr =  2.72E-13,  avg # of iterations =  1.6

     total cpu time spent up to now is    11054.0 secs

     End of self-consistent calculation

     Number of k-points >= 100: set verbosity='high' to print the bands.

     the Fermi energy is    15.8075 ev

!    total energy              =    -703.67924234 Ry
     Harris-Foulkes estimate   =    -703.67924234 Ry
     estimated scf accuracy    <          5.0E-11 Ry

     The total energy is the sum of the following terms:

     one-electron contribution =    -174.90591821 Ry
     hartree contribution      =     118.96073807 Ry
     xc contribution           =     -98.86543948 Ry
     ewald contribution        =    -548.86475502 Ry
     smearing contrib. (-TS)   =      -0.00386771 Ry

     convergence has been achieved in  26 iterations

     Forces acting on atoms (Ry/au):

     atom    1 type  2   force =    -0.00162898   -0.00094049    0.00000000
     atom    2 type  2   force =     0.00613207    0.00354035    0.00000000
     atom    3 type  1   force =    -0.00840856   -0.00485468    0.00000000
     atom    4 type  2   force =    -0.00608654   -0.00351406    0.00000000
     atom    5 type  1   force =     0.01429370    0.00825247    0.00000000
     atom    6 type  1   force =    -0.00430170   -0.00248359    0.00000000

     Total force =     0.022236     Total SCF correction =     0.000017


     entering subroutine stress ...

          total   stress  (Ry/bohr**3)                   (kbar)     P=   11.29
   0.00004319   0.00003483   0.00000000          6.35      5.12      0.00
   0.00003483   0.00000298   0.00000000          5.12      0.44      0.00
   0.00000000   0.00000000   0.00018409          0.00      0.00     27.08


     number of scf cycles    =   3
     number of bfgs steps    =   2

     enthalpy old            =    -703.6720419931 Ry
     enthalpy new            =    -703.6792423426 Ry

     CASE: enthalpy_new < enthalpy_old

     new trust radius        =       0.0201752420 bohr
     new conv_thr            =            1.0E-10 Ry

     new unit-cell volume =    724.12381 a.u.^3 (   107.30408 Ang^3 )

CELL_PARAMETERS (alat=  1.88972599)
   5.867371391   5.068880217   0.000000000
  -7.323464405  -2.546852946   0.000000000
   0.000000000   0.000000000   4.838218631

ATOMIC_POSITIONS (angstrom)
Ti      -1.460403028   2.519538884   4.838218631
Ti      -1.453030790   0.842442052   2.419109316
Nb       1.459436074   2.523957387   4.838218631
Ti      -5.864144706  -1.704315943   2.419109316
Nb      -2.907815964   0.002523058   4.838218631
Nb       2.931164615   3.373658638   2.419109316


     NEW-OLD atomic charge density approx. for the potential

     Check: negative/imaginary core charge=   -0.000001    0.000000
     extrapolated charge   75.31540, renormalised to   75.00000

     total cpu time spent up to now is    11091.9 secs

     per-process dynamical memory:   271.9 Mb

     Self-consistent Calculation

     iteration #  1     ecut=    40.00 Ry     beta=0.60
     Davidson diagonalization with overlap
     c_bands:  1 eigenvalues not converged
     ethr =  1.00E-06,  avg # of iterations =  4.5

     total cpu time spent up to now is    11315.7 secs

     total energy              =    -703.66999279 Ry
     Harris-Foulkes estimate   =    -703.15335966 Ry
     estimated scf accuracy    <       0.01028999 Ry

     iteration #  2     ecut=    40.00 Ry     beta=0.60
     Davidson diagonalization with overlap
     c_bands:  1 eigenvalues not converged
     c_bands:  1 eigenvalues not converged
     c_bands:  1 eigenvalues not converged
     c_bands:  1 eigenvalues not converged
     c_bands:  1 eigenvalues not converged
     c_bands:  1 eigenvalues not converged
     ethr =  1.37E-05,  avg # of iterations =  6.6

     total cpu time spent up to now is    11522.1 secs

     total energy              =    -703.64491116 Ry
     Harris-Foulkes estimate   =    -703.71096562 Ry
     estimated scf accuracy    <       0.61490768 Ry

     iteration #  3     ecut=    40.00 Ry     beta=0.60
     Davidson diagonalization with overlap
     ethr =  1.37E-05,  avg # of iterations =  5.9

     total cpu time spent up to now is    11688.6 secs

     total energy              =    -703.67726470 Ry
     Harris-Foulkes estimate   =    -703.68531098 Ry
     estimated scf accuracy    <       0.07088007 Ry

     iteration #  4     ecut=    40.00 Ry     beta=0.60
     Davidson diagonalization with overlap
     ethr =  1.37E-05,  avg # of iterations =  5.4

     total cpu time spent up to now is    11848.3 secs

     total energy              =    -703.67856525 Ry
     Harris-Foulkes estimate   =    -703.68246625 Ry
     estimated scf accuracy    <       0.03489717 Ry

     iteration #  5     ecut=    40.00 Ry     beta=0.60
     Davidson diagonalization with overlap
     ethr =  1.37E-05,  avg # of iterations =  3.4

     total cpu time spent up to now is    11945.2 secs

     total energy              =    -703.68000654 Ry
     Harris-Foulkes estimate   =    -703.68053708 Ry
     estimated scf accuracy    <       0.00447074 Ry

     iteration #  6     ecut=    40.00 Ry     beta=0.60
     Davidson diagonalization with overlap
     ethr =  5.96E-06,  avg # of iterations =  3.8

     total cpu time spent up to now is    12037.8 secs

     total energy              =    -703.68032866 Ry
     Harris-Foulkes estimate   =    -703.68049733 Ry
     estimated scf accuracy    <       0.00272667 Ry

     iteration #  7     ecut=    40.00 Ry     beta=0.60
     Davidson diagonalization with overlap
     ethr =  3.64E-06,  avg # of iterations =  1.6

     total cpu time spent up to now is    12122.4 secs

     total energy              =    -703.68023951 Ry
     Harris-Foulkes estimate   =    -703.68038742 Ry
     estimated scf accuracy    <       0.00167924 Ry

     iteration #  8     ecut=    40.00 Ry     beta=0.60
     Davidson diagonalization with overlap
     ethr =  2.24E-06,  avg # of iterations =  1.4

     total cpu time spent up to now is    12202.4 secs

     total energy              =    -703.68011310 Ry
     Harris-Foulkes estimate   =    -703.68026444 Ry
     estimated scf accuracy    <       0.00110485 Ry

     iteration #  9     ecut=    40.00 Ry     beta=0.60
     Davidson diagonalization with overlap
     ethr =  1.47E-06,  avg # of iterations =  1.3

     total cpu time spent up to now is    12281.6 secs

     total energy              =    -703.68004874 Ry
     Harris-Foulkes estimate   =    -703.68014304 Ry
     estimated scf accuracy    <       0.00045792 Ry

     iteration # 10     ecut=    40.00 Ry     beta=0.60
     Davidson diagonalization with overlap
     ethr =  6.11E-07,  avg # of iterations =  4.1

     total cpu time spent up to now is    12383.3 secs

     total energy              =    -703.68009703 Ry
     Harris-Foulkes estimate   =    -703.68010265 Ry
     estimated scf accuracy    <       0.00002072 Ry

     iteration # 11     ecut=    40.00 Ry     beta=0.60
     Davidson diagonalization with overlap
     ethr =  2.76E-08,  avg # of iterations =  5.0

     total cpu time spent up to now is    12519.4 secs

     total energy              =    -703.68010339 Ry
     Harris-Foulkes estimate   =    -703.68010444 Ry
     estimated scf accuracy    <       0.00000763 Ry

     iteration # 12     ecut=    40.00 Ry     beta=0.60
     Davidson diagonalization with overlap
     ethr =  1.02E-08,  avg # of iterations =  1.1

     total cpu time spent up to now is    12598.3 secs

     total energy              =    -703.68010377 Ry
     Harris-Foulkes estimate   =    -703.68010384 Ry
     estimated scf accuracy    <       0.00000032 Ry

     iteration # 13     ecut=    40.00 Ry     beta=0.60
     Davidson diagonalization with overlap
     ethr =  4.32E-10,  avg # of iterations =  4.8

     total cpu time spent up to now is    12728.9 secs

     total energy              =    -703.68010389 Ry
     Harris-Foulkes estimate   =    -703.68010394 Ry
     estimated scf accuracy    <       0.00000038 Ry

     iteration # 14     ecut=    40.00 Ry     beta=0.60
     Davidson diagonalization with overlap
     ethr =  4.32E-10,  avg # of iterations =  1.4

     total cpu time spent up to now is    12809.1 secs

     total energy              =    -703.68010391 Ry
     Harris-Foulkes estimate   =    -703.68010392 Ry
     estimated scf accuracy    <       0.00000006 Ry

     iteration # 15     ecut=    40.00 Ry     beta=0.60
     Davidson diagonalization with overlap
     ethr =  8.39E-11,  avg # of iterations =  3.4

     total cpu time spent up to now is    12905.8 secs

     total energy              =    -703.68010391 Ry
     Harris-Foulkes estimate   =    -703.68010392 Ry
     estimated scf accuracy    <       0.00000008 Ry

     iteration # 16     ecut=    40.00 Ry     beta=0.60
     Davidson diagonalization with overlap
     ethr =  8.39E-11,  avg # of iterations =  1.6

     total cpu time spent up to now is    12986.6 secs

     total energy              =    -703.68010392 Ry
     Harris-Foulkes estimate   =    -703.68010392 Ry
     estimated scf accuracy    <          5.5E-09 Ry

     iteration # 17     ecut=    40.00 Ry     beta=0.60
     Davidson diagonalization with overlap
     ethr =  7.30E-12,  avg # of iterations =  4.1

     total cpu time spent up to now is    13098.2 secs

     total energy              =    -703.68010392 Ry
     Harris-Foulkes estimate   =    -703.68010392 Ry
     estimated scf accuracy    <          1.4E-09 Ry

     iteration # 18     ecut=    40.00 Ry     beta=0.60
     Davidson diagonalization with overlap
     ethr =  1.89E-12,  avg # of iterations =  1.8

     total cpu time spent up to now is    13180.2 secs

     total energy              =    -703.68010392 Ry
     Harris-Foulkes estimate   =    -703.68010392 Ry
     estimated scf accuracy    <          2.5E-10 Ry

     iteration # 19     ecut=    40.00 Ry     beta=0.60
     Davidson diagonalization with overlap
     ethr =  3.37E-13,  avg # of iterations =  4.1

     total cpu time spent up to now is    13295.3 secs

     total energy              =    -703.68010392 Ry
     Harris-Foulkes estimate   =    -703.68010392 Ry
     estimated scf accuracy    <          2.9E-10 Ry

     iteration # 20     ecut=    40.00 Ry     beta=0.60
     Davidson diagonalization with overlap
     ethr =  3.37E-13,  avg # of iterations =  1.0

     total cpu time spent up to now is    13374.0 secs

     End of self-consistent calculation

     Number of k-points >= 100: set verbosity='high' to print the bands.

     the Fermi energy is    15.7242 ev

!    total energy              =    -703.68010392 Ry
     Harris-Foulkes estimate   =    -703.68010392 Ry
     estimated scf accuracy    <          2.1E-11 Ry

     The total energy is the sum of the following terms:

     one-electron contribution =    -175.98166468 Ry
     hartree contribution      =     119.25387136 Ry
     xc contribution           =     -98.83952327 Ry
     ewald contribution        =    -548.10887709 Ry
     smearing contrib. (-TS)   =      -0.00391025 Ry

     convergence has been achieved in  20 iterations

     Forces acting on atoms (Ry/au):

     atom    1 type  2   force =    -0.00108130   -0.00062429    0.00000000
     atom    2 type  2   force =     0.00492395    0.00284284    0.00000000
     atom    3 type  1   force =    -0.00659618   -0.00380830    0.00000000
     atom    4 type  2   force =    -0.00520805   -0.00300687    0.00000000
     atom    5 type  1   force =     0.01336003    0.00771342    0.00000000
     atom    6 type  1   force =    -0.00539846   -0.00311680    0.00000000

     Total force =     0.020122     Total SCF correction =     0.000009


     entering subroutine stress ...

          total   stress  (Ry/bohr**3)                   (kbar)     P=    4.28
   0.00000648   0.00004156   0.00000000          0.95      6.11      0.00
   0.00004156  -0.00004151   0.00000000          6.11     -6.11      0.00
   0.00000000   0.00000000   0.00012233          0.00      0.00     18.00


     number of scf cycles    =   4
     number of bfgs steps    =   3

     enthalpy old            =    -703.6792423426 Ry
     enthalpy new            =    -703.6801039175 Ry

     CASE: enthalpy_new < enthalpy_old

     new trust radius        =       0.0302158533 bohr
     new conv_thr            =            1.0E-10 Ry

     new unit-cell volume =    725.94878 a.u.^3 (   107.57451 Ang^3 )

CELL_PARAMETERS (alat=  1.88972599)
   5.874668284   5.066762840   0.000000000
  -7.325279149  -2.554230930   0.000000000
   0.000000000   0.000000000   4.865382020

ATOMIC_POSITIONS (angstrom)
Ti      -1.456251208   2.509275457   4.865382020
Ti      -1.445522976   0.840446456   2.432691010
Nb       1.456555931   2.515964296   4.865382020
Ti      -5.870334587  -1.714219907   2.432691010
Nb      -2.893107684   0.004684646   4.865382020
Nb       2.931535635   3.367542612   2.432691010


     NEW-OLD atomic charge density approx. for the potential

     Check: negative/imaginary core charge=   -0.000001    0.000000
     extrapolated charge   75.18098, renormalised to   75.00000

     total cpu time spent up to now is    13411.7 secs

     per-process dynamical memory:   271.9 Mb

     Self-consistent Calculation

     iteration #  1     ecut=    40.00 Ry     beta=0.60
     Davidson diagonalization with overlap
     c_bands:  1 eigenvalues not converged
     ethr =  1.00E-06,  avg # of iterations =  5.6

     total cpu time spent up to now is    13648.4 secs

     total energy              =    -703.67127045 Ry
     Harris-Foulkes estimate   =    -703.37859743 Ry
     estimated scf accuracy    <       0.01277446 Ry

     iteration #  2     ecut=    40.00 Ry     beta=0.60
     Davidson diagonalization with overlap
     ethr =  1.70E-05,  avg # of iterations =  5.7

     total cpu time spent up to now is    13837.0 secs

     total energy              =    -703.61445552 Ry
     Harris-Foulkes estimate   =    -703.74775359 Ry
     estimated scf accuracy    <       1.43719569 Ry

     iteration #  3     ecut=    40.00 Ry     beta=0.60
     Davidson diagonalization with overlap
     ethr =  1.70E-05,  avg # of iterations =  6.2

     total cpu time spent up to now is    14015.3 secs

     total energy              =    -703.68022629 Ry
     Harris-Foulkes estimate   =    -703.68302776 Ry
     estimated scf accuracy    <       0.01828931 Ry

     iteration #  4     ecut=    40.00 Ry     beta=0.60
     Davidson diagonalization with overlap
     ethr =  1.70E-05,  avg # of iterations =  3.9

     total cpu time spent up to now is    14107.5 secs

     total energy              =    -703.68037723 Ry
     Harris-Foulkes estimate   =    -703.68278094 Ry
     estimated scf accuracy    <       0.02317702 Ry

     iteration #  5     ecut=    40.00 Ry     beta=0.60
     Davidson diagonalization with overlap
     ethr =  1.70E-05,  avg # of iterations =  1.2

     total cpu time spent up to now is    14186.3 secs

     total energy              =    -703.68126754 Ry
     Harris-Foulkes estimate   =    -703.68154916 Ry
     estimated scf accuracy    <       0.00275438 Ry

     iteration #  6     ecut=    40.00 Ry     beta=0.60
     Davidson diagonalization with overlap
     ethr =  3.67E-06,  avg # of iterations =  3.9

     total cpu time spent up to now is    14280.7 secs

     total energy              =    -703.68147484 Ry
     Harris-Foulkes estimate   =    -703.68153750 Ry
     estimated scf accuracy    <       0.00093803 Ry

     iteration #  7     ecut=    40.00 Ry     beta=0.60
     Davidson diagonalization with overlap
     ethr =  1.25E-06,  avg # of iterations =  2.3

     total cpu time spent up to now is    14363.9 secs

     total energy              =    -703.68141179 Ry
     Harris-Foulkes estimate   =    -703.68150426 Ry
     estimated scf accuracy    <       0.00058473 Ry

     iteration #  8     ecut=    40.00 Ry     beta=0.60
     Davidson diagonalization with overlap
     ethr =  7.80E-07,  avg # of iterations =  2.3

     total cpu time spent up to now is    14447.9 secs

     total energy              =    -703.68139924 Ry
     Harris-Foulkes estimate   =    -703.68144199 Ry
     estimated scf accuracy    <       0.00015890 Ry

     iteration #  9     ecut=    40.00 Ry     beta=0.60
     Davidson diagonalization with overlap
     ethr =  2.12E-07,  avg # of iterations =  4.9

     total cpu time spent up to now is    14566.4 secs

     total energy              =    -703.68143265 Ry
     Harris-Foulkes estimate   =    -703.68144519 Ry
     estimated scf accuracy    <       0.00011617 Ry

     iteration # 10     ecut=    40.00 Ry     beta=0.60
     Davidson diagonalization with overlap
     ethr =  1.55E-07,  avg # of iterations =  1.1

     total cpu time spent up to now is    14645.2 secs

     total energy              =    -703.68143279 Ry
     Harris-Foulkes estimate   =    -703.68143819 Ry
     estimated scf accuracy    <       0.00003731 Ry

     iteration # 11     ecut=    40.00 Ry     beta=0.60
     Davidson diagonalization with overlap
     ethr =  4.97E-08,  avg # of iterations =  3.5

     total cpu time spent up to now is    14743.0 secs

     total energy              =    -703.68143619 Ry
     Harris-Foulkes estimate   =    -703.68143676 Ry
     estimated scf accuracy    <       0.00000359 Ry

     iteration # 12     ecut=    40.00 Ry     beta=0.60
     Davidson diagonalization with overlap
     ethr =  4.79E-09,  avg # of iterations =  3.1

     total cpu time spent up to now is    14837.3 secs

     total energy              =    -703.68143648 Ry
     Harris-Foulkes estimate   =    -703.68143663 Ry
     estimated scf accuracy    <       0.00000127 Ry

     iteration # 13     ecut=    40.00 Ry     beta=0.60
     Davidson diagonalization with overlap
     ethr =  1.69E-09,  avg # of iterations =  2.3

     total cpu time spent up to now is    14921.3 secs

     total energy              =    -703.68143655 Ry
     Harris-Foulkes estimate   =    -703.68143659 Ry
     estimated scf accuracy    <       0.00000032 Ry

     iteration # 14     ecut=    40.00 Ry     beta=0.60
     Davidson diagonalization with overlap
     ethr =  4.22E-10,  avg # of iterations =  3.7

     total cpu time spent up to now is    15019.9 secs

     total energy              =    -703.68143659 Ry
     Harris-Foulkes estimate   =    -703.68143660 Ry
     estimated scf accuracy    <       0.00000012 Ry

     iteration # 15     ecut=    40.00 Ry     beta=0.60
     Davidson diagonalization with overlap
     ethr =  1.58E-10,  avg # of iterations =  1.7

     total cpu time spent up to now is    15106.6 secs

     total energy              =    -703.68143659 Ry
     Harris-Foulkes estimate   =    -703.68143659 Ry
     estimated scf accuracy    <       0.00000003 Ry

     iteration # 16     ecut=    40.00 Ry     beta=0.60
     Davidson diagonalization with overlap
     ethr =  4.15E-11,  avg # of iterations =  2.9

     total cpu time spent up to now is    15195.9 secs

     total energy              =    -703.68143659 Ry
     Harris-Foulkes estimate   =    -703.68143659 Ry
     estimated scf accuracy    <       0.00000001 Ry

     iteration # 17     ecut=    40.00 Ry     beta=0.60
     Davidson diagonalization with overlap
     ethr =  1.94E-11,  avg # of iterations =  2.4

     total cpu time spent up to now is    15279.5 secs

     total energy              =    -703.68143659 Ry
     Harris-Foulkes estimate   =    -703.68143659 Ry
     estimated scf accuracy    <          2.0E-09 Ry

     iteration # 18     ecut=    40.00 Ry     beta=0.60
     Davidson diagonalization with overlap
     ethr =  2.62E-12,  avg # of iterations =  4.4

     total cpu time spent up to now is    15398.0 secs

     total energy              =    -703.68143659 Ry
     Harris-Foulkes estimate   =    -703.68143659 Ry
     estimated scf accuracy    <          2.7E-09 Ry

     iteration # 19     ecut=    40.00 Ry     beta=0.60
     Davidson diagonalization with overlap
     ethr =  2.62E-12,  avg # of iterations =  1.0

     total cpu time spent up to now is    15476.5 secs

     total energy              =    -703.68143659 Ry
     Harris-Foulkes estimate   =    -703.68143659 Ry
     estimated scf accuracy    <          3.6E-10 Ry

     iteration # 20     ecut=    40.00 Ry     beta=0.60
     Davidson diagonalization with overlap
     ethr =  4.78E-13,  avg # of iterations =  4.1

     total cpu time spent up to now is    15590.8 secs

     total energy              =    -703.68143659 Ry
     Harris-Foulkes estimate   =    -703.68143659 Ry
     estimated scf accuracy    <          2.6E-10 Ry

     iteration # 21     ecut=    40.00 Ry     beta=0.60
     Davidson diagonalization with overlap
     ethr =  3.42E-13,  avg # of iterations =  1.0

     total cpu time spent up to now is    15669.1 secs

     total energy              =    -703.68143659 Ry
     Harris-Foulkes estimate   =    -703.68143659 Ry
     estimated scf accuracy    <          1.1E-10 Ry

     iteration # 22     ecut=    40.00 Ry     beta=0.60
     Davidson diagonalization with overlap
     ethr =  1.49E-13,  avg # of iterations =  2.8

     total cpu time spent up to now is    15759.5 secs

     End of self-consistent calculation

     Number of k-points >= 100: set verbosity='high' to print the bands.

     the Fermi energy is    15.6708 ev

!    total energy              =    -703.68143659 Ry
     Harris-Foulkes estimate   =    -703.68143659 Ry
     estimated scf accuracy    <          2.6E-12 Ry

     The total energy is the sum of the following terms:

     one-electron contribution =    -176.53561794 Ry
     hartree contribution      =     119.39325844 Ry
     xc contribution           =     -98.82442301 Ry
     ewald contribution        =    -547.71078968 Ry
     smearing contrib. (-TS)   =      -0.00386440 Ry

     convergence has been achieved in  22 iterations

     Forces acting on atoms (Ry/au):

     atom    1 type  2   force =     0.00024238    0.00013994    0.00000000
     atom    2 type  2   force =     0.00284004    0.00163970    0.00000000
     atom    3 type  1   force =    -0.00340775   -0.00196747    0.00000000
     atom    4 type  2   force =    -0.00410498   -0.00237001    0.00000000
     atom    5 type  1   force =     0.01221729    0.00705365    0.00000000
     atom    6 type  1   force =    -0.00778698   -0.00449582    0.00000000

     Total force =     0.018129     Total SCF correction =     0.000007


     entering subroutine stress ...

          total   stress  (Ry/bohr**3)                   (kbar)     P=   -0.62
  -0.00000617   0.00005296   0.00000000         -0.91      7.79      0.00
   0.00005296  -0.00006731   0.00000000          7.79     -9.90      0.00
   0.00000000   0.00000000   0.00006078          0.00      0.00      8.94


     number of scf cycles    =   5
     number of bfgs steps    =   4

     enthalpy old            =    -703.6801039175 Ry
     enthalpy new            =    -703.6814365930 Ry

     CASE: enthalpy_new < enthalpy_old

     new trust radius        =       0.0451274966 bohr
     new conv_thr            =            1.0E-10 Ry

     new unit-cell volume =    726.80760 a.u.^3 (   107.70177 Ang^3 )

CELL_PARAMETERS (alat=  1.88972599)
   5.885893449   5.061730449   0.000000000
  -7.326533553  -2.566468403   0.000000000
   0.000000000   0.000000000   4.900218563

ATOMIC_POSITIONS (angstrom)
Ti      -1.447611971   2.491236838   4.900218563
Ti      -1.434066086   0.835547863   2.450109282
Nb       1.454129786   2.503050318   4.900218563
Ti      -5.878136633  -1.730237651   2.450109282
Nb      -2.869471177   0.006817947   4.900218563
Nb       2.930848915   3.355632903   2.450109282


     NEW-OLD atomic charge density approx. for the potential

     Check: negative/imaginary core charge=   -0.000001    0.000000
     extrapolated charge   75.08507, renormalised to   75.00000

     total cpu time spent up to now is    15797.4 secs

     per-process dynamical memory:   271.9 Mb

     Self-consistent Calculation

     iteration #  1     ecut=    40.00 Ry     beta=0.60
     Davidson diagonalization with overlap
     c_bands:  1 eigenvalues not converged
     c_bands:  1 eigenvalues not converged
     c_bands:  1 eigenvalues not converged
     ethr =  1.00E-06,  avg # of iterations =  8.0

     total cpu time spent up to now is    16058.7 secs

     total energy              =    -703.66755583 Ry
     Harris-Foulkes estimate   =    -703.54116932 Ry
     estimated scf accuracy    <       0.02065915 Ry

     iteration #  2     ecut=    40.00 Ry     beta=0.60
     Davidson diagonalization with overlap
     ethr =  2.75E-05,  avg # of iterations =  5.8

     total cpu time spent up to now is    16233.1 secs

     total energy              =    -703.56721017 Ry
     Harris-Foulkes estimate   =    -703.80481297 Ry
     estimated scf accuracy    <       2.59467620 Ry

     iteration #  3     ecut=    40.00 Ry     beta=0.60
     Davidson diagonalization with overlap
     ethr =  2.75E-05,  avg # of iterations =  6.3

     total cpu time spent up to now is    16413.5 secs

     total energy              =    -703.68183293 Ry
     Harris-Foulkes estimate   =    -703.68405890 Ry
     estimated scf accuracy    <       0.01672656 Ry

     iteration #  4     ecut=    40.00 Ry     beta=0.60
     Davidson diagonalization with overlap
     ethr =  2.23E-05,  avg # of iterations =  1.0

     total cpu time spent up to now is    16491.9 secs

     total energy              =    -703.68247113 Ry
     Harris-Foulkes estimate   =    -703.68313055 Ry
     estimated scf accuracy    <       0.00393196 Ry

     iteration #  5     ecut=    40.00 Ry     beta=0.60
     Davidson diagonalization with overlap
     ethr =  5.24E-06,  avg # of iterations =  5.0

     total cpu time spent up to now is    16601.5 secs

     total energy              =    -703.68287269 Ry
     Harris-Foulkes estimate   =    -703.68330516 Ry
     estimated scf accuracy    <       0.00336201 Ry

     iteration #  6     ecut=    40.00 Ry     beta=0.60
     Davidson diagonalization with overlap
     ethr =  4.48E-06,  avg # of iterations =  1.0

     total cpu time spent up to now is    16680.1 secs

     total energy              =    -703.68300471 Ry
     Harris-Foulkes estimate   =    -703.68307456 Ry
     estimated scf accuracy    <       0.00051117 Ry

     iteration #  7     ecut=    40.00 Ry     beta=0.60
     Davidson diagonalization with overlap
     ethr =  6.82E-07,  avg # of iterations =  3.8

     total cpu time spent up to now is    16781.1 secs

     total energy              =    -703.68305771 Ry
     Harris-Foulkes estimate   =    -703.68307843 Ry
     estimated scf accuracy    <       0.00010582 Ry

     iteration #  8     ecut=    40.00 Ry     beta=0.60
     Davidson diagonalization with overlap
     ethr =  1.41E-07,  avg # of iterations =  3.8

     total cpu time spent up to now is    16885.4 secs

     total energy              =    -703.68306316 Ry
     Harris-Foulkes estimate   =    -703.68308058 Ry
     estimated scf accuracy    <       0.00009132 Ry

     iteration #  9     ecut=    40.00 Ry     beta=0.60
     Davidson diagonalization with overlap
     ethr =  1.22E-07,  avg # of iterations =  2.9

     total cpu time spent up to now is    16979.2 secs

     total energy              =    -703.68306900 Ry
     Harris-Foulkes estimate   =    -703.68307854 Ry
     estimated scf accuracy    <       0.00007119 Ry

     iteration # 10     ecut=    40.00 Ry     beta=0.60
     Davidson diagonalization with overlap
     ethr =  9.49E-08,  avg # of iterations =  1.0

     total cpu time spent up to now is    17057.6 secs

     total energy              =    -703.68307077 Ry
     Harris-Foulkes estimate   =    -703.68307268 Ry
     estimated scf accuracy    <       0.00001135 Ry

     iteration # 11     ecut=    40.00 Ry     beta=0.60
     Davidson diagonalization with overlap
     ethr =  1.51E-08,  avg # of iterations =  4.0

     total cpu time spent up to now is    17166.2 secs

     total energy              =    -703.68307285 Ry
     Harris-Foulkes estimate   =    -703.68307338 Ry
     estimated scf accuracy    <       0.00000588 Ry

     iteration # 12     ecut=    40.00 Ry     beta=0.60
[...]

     Dense  grid:    97181 G-vectors     FFT dimensions: ( 100, 100,  60)

     Smooth grid:    24571 G-vectors     FFT dimensions: (  64,  64,  40)

     Estimated max dynamical RAM per process >     161.18Mb

     Estimated total allocated dynamical RAM >     644.71Mb

     Initial potential from superposition of free atoms

     starting charge   71.99167, renormalised to   75.00000
     Starting wfc are   69 randomized atomic wfcs

     total cpu time spent up to now is    66602.2 secs

     per-process dynamical memory:   259.0 Mb

     Self-consistent Calculation

     iteration #  1     ecut=    40.00 Ry     beta=0.60
     Davidson diagonalization with overlap
     c_bands:  2 eigenvalues not converged
     c_bands:  1 eigenvalues not converged
     c_bands:  1 eigenvalues not converged
     c_bands:  1 eigenvalues not converged
     c_bands:  1 eigenvalues not converged
     ethr =  1.00E-06,  avg # of iterations = 16.3

     total cpu time spent up to now is    66960.3 secs

     total energy              =    -620.95851645 Ry
     Harris-Foulkes estimate   =    -715.07449916 Ry
     estimated scf accuracy    <     115.05482245 Ry

     iteration #  2     ecut=    40.00 Ry     beta=0.60
     Davidson diagonalization with overlap
     ethr =  1.00E-02,  avg # of iterations =  9.6

     total cpu time spent up to now is    67285.5 secs

     total energy              =    -641.18673535 Ry
     Harris-Foulkes estimate   =    -919.96011043 Ry
     estimated scf accuracy    <    1049.68163660 Ry

     iteration #  3     ecut=    40.00 Ry     beta=0.60
     Davidson diagonalization with overlap
     ethr =  1.00E-02,  avg # of iterations =  7.6

     total cpu time spent up to now is    67539.8 secs

     total energy              =    -706.51283008 Ry
     Harris-Foulkes estimate   =    -715.46269795 Ry
     estimated scf accuracy    <      59.67975526 Ry

     iteration #  4     ecut=    40.00 Ry     beta=0.60
     Davidson diagonalization with overlap
     ethr =  1.00E-02,  avg # of iterations =  2.5

     total cpu time spent up to now is    67627.9 secs

     total energy              =    -706.11649232 Ry
     Harris-Foulkes estimate   =    -708.87578219 Ry
     estimated scf accuracy    <      41.95091416 Ry

     iteration #  5     ecut=    40.00 Ry     beta=0.60
     Davidson diagonalization with overlap
     ethr =  1.00E-02,  avg # of iterations =  1.6

     total cpu time spent up to now is    67705.1 secs

     total energy              =    -705.50655342 Ry
     Harris-Foulkes estimate   =    -706.87440151 Ry
     estimated scf accuracy    <      36.13154922 Ry

     iteration #  6     ecut=    40.00 Ry     beta=0.60
     Davidson diagonalization with overlap
     ethr =  1.00E-02,  avg # of iterations =  1.3

     total cpu time spent up to now is    67781.4 secs

     total energy              =    -705.35423618 Ry
     Harris-Foulkes estimate   =    -705.92331579 Ry
     estimated scf accuracy    <      23.39270806 Ry

     iteration #  7     ecut=    40.00 Ry     beta=0.60
     Davidson diagonalization with overlap
     ethr =  1.00E-02,  avg # of iterations =  1.0

     total cpu time spent up to now is    67856.6 secs

     total energy              =    -705.42171981 Ry
     Harris-Foulkes estimate   =    -705.41215692 Ry
     estimated scf accuracy    <      19.18950676 Ry

     iteration #  8     ecut=    40.00 Ry     beta=0.60
     Davidson diagonalization with overlap
     ethr =  1.00E-02,  avg # of iterations =  1.0

     total cpu time spent up to now is    67931.8 secs

     total energy              =    -705.89133309 Ry
     Harris-Foulkes estimate   =    -705.44552999 Ry
     estimated scf accuracy    <      18.31968231 Ry

     iteration #  9     ecut=    40.00 Ry     beta=0.60
     Davidson diagonalization with overlap
     ethr =  1.00E-02,  avg # of iterations =  1.0

     total cpu time spent up to now is    68007.0 secs

     total energy              =    -705.54956223 Ry
     Harris-Foulkes estimate   =    -705.91121857 Ry
     estimated scf accuracy    <      20.69611678 Ry

     iteration # 10     ecut=    40.00 Ry     beta=0.60
     Davidson diagonalization with overlap
     ethr =  1.00E-02,  avg # of iterations =  1.0

     total cpu time spent up to now is    68082.4 secs

     total energy              =    -695.71145767 Ry
     Harris-Foulkes estimate   =    -705.56832315 Ry
     estimated scf accuracy    <      18.00756022 Ry

     iteration # 11     ecut=    40.00 Ry     beta=0.60
     Davidson diagonalization with overlap
     ethr =  1.00E-02,  avg # of iterations =  5.2

     total cpu time spent up to now is    68259.4 secs

     total energy              =    -708.11177472 Ry
     Harris-Foulkes estimate   =    -734.18425368 Ry
     estimated scf accuracy    <     214.86073448 Ry

     iteration # 12     ecut=    40.00 Ry     beta=0.60
     Davidson diagonalization with overlap
     ethr =  1.00E-02,  avg # of iterations =  3.9

     total cpu time spent up to now is    68368.2 secs

     total energy              =    -706.09471027 Ry
     Harris-Foulkes estimate   =    -710.27651665 Ry
     estimated scf accuracy    <     120.61372180 Ry

     iteration # 13     ecut=    40.00 Ry     beta=0.60
     Davidson diagonalization with overlap
     ethr =  1.00E-02,  avg # of iterations =  2.2

     total cpu time spent up to now is    68447.7 secs

     total energy              =    -704.28866853 Ry
     Harris-Foulkes estimate   =    -706.50769393 Ry
     estimated scf accuracy    <      69.84614508 Ry

     iteration # 14     ecut=    40.00 Ry     beta=0.60
     Davidson diagonalization with overlap
     ethr =  1.00E-02,  avg # of iterations =  2.4

     total cpu time spent up to now is    68528.2 secs

     total energy              =    -703.74609010 Ry
     Harris-Foulkes estimate   =    -704.79278415 Ry
     estimated scf accuracy    <      25.79748616 Ry

     iteration # 15     ecut=    40.00 Ry     beta=0.60
     Davidson diagonalization with overlap
     ethr =  1.00E-02,  avg # of iterations =  1.5

     total cpu time spent up to now is    68605.3 secs

     total energy              =    -703.20414934 Ry
     Harris-Foulkes estimate   =    -704.09761708 Ry
     estimated scf accuracy    <      12.38639652 Ry

     iteration # 16     ecut=    40.00 Ry     beta=0.60
     Davidson diagonalization with overlap
     ethr =  1.00E-02,  avg # of iterations =  3.3

     total cpu time spent up to now is    68690.5 secs

     total energy              =    -703.65949860 Ry
     Harris-Foulkes estimate   =    -703.76482887 Ry
     estimated scf accuracy    <       1.76391846 Ry

     iteration # 17     ecut=    40.00 Ry     beta=0.60
     Davidson diagonalization with overlap
     ethr =  2.35E-03,  avg # of iterations =  4.8

     total cpu time spent up to now is    68802.0 secs

     total energy              =    -703.91184402 Ry
     Harris-Foulkes estimate   =    -703.90331127 Ry
     estimated scf accuracy    <       1.56772316 Ry

     iteration # 18     ecut=    40.00 Ry     beta=0.60
     Davidson diagonalization with overlap
     ethr =  2.09E-03,  avg # of iterations =  1.1

     total cpu time spent up to now is    68877.5 secs

     total energy              =    -703.66803019 Ry
     Harris-Foulkes estimate   =    -703.94396617 Ry
     estimated scf accuracy    <       2.03991574 Ry

     iteration # 19     ecut=    40.00 Ry     beta=0.60
     Davidson diagonalization with overlap
     ethr =  2.09E-03,  avg # of iterations =  1.7

     total cpu time spent up to now is    68955.0 secs

     total energy              =    -703.80246831 Ry
     Harris-Foulkes estimate   =    -703.87207842 Ry
     estimated scf accuracy    <       1.23686198 Ry

     iteration # 20     ecut=    40.00 Ry     beta=0.60
     Davidson diagonalization with overlap
     ethr =  1.65E-03,  avg # of iterations =  2.6

     total cpu time spent up to now is    69037.8 secs

     total energy              =    -703.77622699 Ry
     Harris-Foulkes estimate   =    -703.91591603 Ry
     estimated scf accuracy    <       2.67392323 Ry

     iteration # 21     ecut=    40.00 Ry     beta=0.60
     Davidson diagonalization with overlap
     ethr =  1.65E-03,  avg # of iterations =  1.0

     total cpu time spent up to now is    69113.0 secs

     total energy              =    -703.78151923 Ry
     Harris-Foulkes estimate   =    -703.82947339 Ry
     estimated scf accuracy    <       0.87682081 Ry

     iteration # 22     ecut=    40.00 Ry     beta=0.60
     Davidson diagonalization with overlap
     ethr =  1.17E-03,  avg # of iterations =  1.6

     total cpu time spent up to now is    69190.4 secs

     total energy              =    -703.62013983 Ry
     Harris-Foulkes estimate   =    -703.82785191 Ry
     estimated scf accuracy    <       0.71349482 Ry

     iteration # 23     ecut=    40.00 Ry     beta=0.60
     Davidson diagonalization with overlap
     ethr =  9.51E-04,  avg # of iterations =  3.1

     total cpu time spent up to now is    69283.7 secs

     total energy              =    -703.63347337 Ry
     Harris-Foulkes estimate   =    -703.74640321 Ry
     estimated scf accuracy    <       0.69186395 Ry

     iteration # 24     ecut=    40.00 Ry     beta=0.60
     Davidson diagonalization with overlap
     ethr =  9.22E-04,  avg # of iterations =  3.7

     total cpu time spent up to now is    69374.1 secs

     total energy              =    -703.63960964 Ry
     Harris-Foulkes estimate   =    -703.76033684 Ry
     estimated scf accuracy    <       0.76431523 Ry

     iteration # 25     ecut=    40.00 Ry     beta=0.60
     Davidson diagonalization with overlap
     ethr =  9.22E-04,  avg # of iterations =  1.2

     total cpu time spent up to now is    69450.0 secs

     total energy              =    -703.68833562 Ry
     Harris-Foulkes estimate   =    -703.69516833 Ry
     estimated scf accuracy    <       0.04015210 Ry

     iteration # 26     ecut=    40.00 Ry     beta=0.60
     Davidson diagonalization with overlap
     c_bands:  1 eigenvalues not converged
     c_bands:  1 eigenvalues not converged
     c_bands:  3 eigenvalues not converged
     ethr =  5.35E-05,  avg # of iterations =  6.8

     total cpu time spent up to now is    69586.4 secs

     total energy              =    -703.70086356 Ry
     Harris-Foulkes estimate   =    -703.70419026 Ry
     estimated scf accuracy    <       0.01877911 Ry

     iteration # 27     ecut=    40.00 Ry     beta=0.60
     Davidson diagonalization with overlap
     ethr =  2.50E-05,  avg # of iterations =  2.8

     total cpu time spent up to now is    69668.3 secs

     total energy              =    -703.70233067 Ry
     Harris-Foulkes estimate   =    -703.70276450 Ry
     estimated scf accuracy    <       0.00249885 Ry

     iteration # 28     ecut=    40.00 Ry     beta=0.60
     Davidson diagonalization with overlap
     c_bands:  1 eigenvalues not converged
     ethr =  3.33E-06,  avg # of iterations =  6.4

     total cpu time spent up to now is    69794.8 secs

     total energy              =    -703.70282428 Ry
     Harris-Foulkes estimate   =    -703.70298030 Ry
     estimated scf accuracy    <       0.00152902 Ry

     iteration # 29     ecut=    40.00 Ry     beta=0.60
     Davidson diagonalization with overlap
     ethr =  2.04E-06,  avg # of iterations =  1.5

     total cpu time spent up to now is    69872.2 secs

     total energy              =    -703.70282206 Ry
     Harris-Foulkes estimate   =    -703.70294276 Ry
     estimated scf accuracy    <       0.00061488 Ry

     iteration # 30     ecut=    40.00 Ry     beta=0.60
     Davidson diagonalization with overlap
     ethr =  8.20E-07,  avg # of iterations =  2.6

     total cpu time spent up to now is    69957.9 secs

     total energy              =    -703.70288213 Ry
     Harris-Foulkes estimate   =    -703.70289413 Ry
     estimated scf accuracy    <       0.00011420 Ry

     iteration # 31     ecut=    40.00 Ry     beta=0.60
     Davidson diagonalization with overlap
     ethr =  1.52E-07,  avg # of iterations =  3.0

     total cpu time spent up to now is    70046.7 secs

     total energy              =    -703.70289079 Ry
     Harris-Foulkes estimate   =    -703.70289380 Ry
     estimated scf accuracy    <       0.00002038 Ry

     iteration # 32     ecut=    40.00 Ry     beta=0.60
     Davidson diagonalization with overlap
     ethr =  2.72E-08,  avg # of iterations =  2.8

     total cpu time spent up to now is    70133.7 secs

     total energy              =    -703.70289292 Ry
     Harris-Foulkes estimate   =    -703.70289307 Ry
     estimated scf accuracy    <       0.00000098 Ry

     iteration # 33     ecut=    40.00 Ry     beta=0.60
     Davidson diagonalization with overlap
     ethr =  1.30E-09,  avg # of iterations =  4.3

     total cpu time spent up to now is    70243.2 secs

     total energy              =    -703.70289313 Ry
     Harris-Foulkes estimate   =    -703.70289323 Ry
     estimated scf accuracy    <       0.00000077 Ry

     iteration # 34     ecut=    40.00 Ry     beta=0.60
     Davidson diagonalization with overlap
     ethr =  1.02E-09,  avg # of iterations =  1.1

     total cpu time spent up to now is    70319.2 secs

     total energy              =    -703.70289318 Ry
     Harris-Foulkes estimate   =    -703.70289318 Ry
     estimated scf accuracy    <       0.00000003 Ry

     iteration # 35     ecut=    40.00 Ry     beta=0.60
     Davidson diagonalization with overlap
     ethr =  3.68E-11,  avg # of iterations =  4.7

     total cpu time spent up to now is    70440.7 secs

     total energy              =    -703.70289319 Ry
     Harris-Foulkes estimate   =    -703.70289320 Ry
     estimated scf accuracy    <       0.00000005 Ry

     iteration # 36     ecut=    40.00 Ry     beta=0.60
     Davidson diagonalization with overlap
     ethr =  3.68E-11,  avg # of iterations =  1.0

     total cpu time spent up to now is    70516.0 secs

     total energy              =    -703.70289319 Ry
     Harris-Foulkes estimate   =    -703.70289319 Ry
     estimated scf accuracy    <          9.4E-09 Ry

     iteration # 37     ecut=    40.00 Ry     beta=0.60
     Davidson diagonalization with overlap
     ethr =  1.25E-11,  avg # of iterations =  3.1

     total cpu time spent up to now is    70607.4 secs

     total energy              =    -703.70289319 Ry
     Harris-Foulkes estimate   =    -703.70289319 Ry
     estimated scf accuracy    <          6.1E-10 Ry

     iteration # 38     ecut=    40.00 Ry     beta=0.60
     Davidson diagonalization with overlap
     ethr =  8.10E-13,  avg # of iterations =  3.3

     total cpu time spent up to now is    70701.2 secs

     total energy              =    -703.70289319 Ry
     Harris-Foulkes estimate   =    -703.70289319 Ry
     estimated scf accuracy    <          5.5E-10 Ry

     iteration # 39     ecut=    40.00 Ry     beta=0.60
     Davidson diagonalization with overlap
     ethr =  7.38E-13,  avg # of iterations =  1.0

     total cpu time spent up to now is    70776.5 secs

     total energy              =    -703.70289319 Ry
     Harris-Foulkes estimate   =    -703.70289319 Ry
     estimated scf accuracy    <          4.5E-11 Ry

     iteration # 40     ecut=    40.00 Ry     beta=0.60
     Davidson diagonalization with overlap
     ethr =  1.00E-13,  avg # of iterations =  3.8

     total cpu time spent up to now is    70877.8 secs

     total energy              =    -703.70289319 Ry
     Harris-Foulkes estimate   =    -703.70289319 Ry
     estimated scf accuracy    <          3.4E-11 Ry

     iteration # 41     ecut=    40.00 Ry     beta=0.60
     Davidson diagonalization with overlap
     ethr =  1.00E-13,  avg # of iterations =  1.0

     total cpu time spent up to now is    70953.1 secs

     End of self-consistent calculation

     Number of k-points >= 100: set verbosity='high' to print the bands.

     the Fermi energy is    15.6966 ev

!    total energy              =    -703.70289319 Ry
     Harris-Foulkes estimate   =    -703.70289319 Ry
     estimated scf accuracy    <          1.6E-12 Ry

     The total energy is the sum of the following terms:

     one-electron contribution =    -174.90657206 Ry
     hartree contribution      =     118.98440189 Ry
     xc contribution           =     -98.88098022 Ry
     ewald contribution        =    -548.89871411 Ry
     smearing contrib. (-TS)   =      -0.00102869 Ry

     convergence has been achieved in  41 iterations

     Forces acting on atoms (Ry/au):

     atom    1 type  2   force =     0.00001061    0.00000612    0.00000000
     atom    2 type  2   force =    -0.00008742   -0.00005047    0.00000000
     atom    3 type  1   force =     0.00002867    0.00001655    0.00000000
     atom    4 type  2   force =     0.00004521    0.00002610    0.00000000
     atom    5 type  1   force =    -0.00000806   -0.00000465    0.00000000
     atom    6 type  1   force =     0.00001099    0.00000634    0.00000000

     Total force =     0.000120     Total SCF correction =     0.000005


     entering subroutine stress ...

          total   stress  (Ry/bohr**3)                   (kbar)     P=   -2.68
  -0.00000894   0.00001319   0.00000000         -1.32      1.94      0.00
   0.00001319  -0.00002417   0.00000000          1.94     -3.56      0.00
   0.00000000   0.00000000  -0.00002158          0.00      0.00     -3.17


     init_run     :     94.49s CPU     98.60s WALL (       2 calls)
     electrons    :  67799.19s CPU  69671.67s WALL (      32 calls)
     update_pot   :     87.36s CPU     88.07s WALL (      30 calls)
     forces       :    435.03s CPU    442.90s WALL (      32 calls)
     stress       :    654.49s CPU    667.65s WALL (      32 calls)

     Called by init_run:
     wfcinit      :     89.78s CPU     93.58s WALL (       2 calls)
     potinit      :      1.71s CPU      1.73s WALL (       2 calls)

     Called by electrons:
     c_bands      :  57167.69s CPU  58648.29s WALL (     633 calls)
     sum_band     :  10293.32s CPU  10642.79s WALL (     633 calls)
     v_of_rho     :    113.16s CPU    116.33s WALL (     658 calls)
     newd         :    213.74s CPU    254.27s WALL (     658 calls)
     mix_rho      :     15.28s CPU     15.81s WALL (     633 calls)

     Called by c_bands:
     init_us_2    :    508.30s CPU    524.60s WALL (  330336 calls)
     cegterg      :  56015.60s CPU  57464.41s WALL (  156984 calls)

     Called by sum_band:
     sum_band:bec :     29.83s CPU     30.43s WALL (  156984 calls)
     addusdens    :    286.06s CPU    333.81s WALL (     633 calls)

     Called by *egterg:
     h_psi        :  34181.83s CPU  35285.49s WALL (  668732 calls)
     s_psi        :   3743.14s CPU   3801.01s WALL (  668732 calls)
     g_psi        :     74.50s CPU     75.50s WALL (  511252 calls)
     cdiaghg      :   4804.77s CPU   4855.44s WALL (  659060 calls)

     Called by h_psi:
     h_psi:pot    :  33903.32s CPU  34998.31s WALL (  668732 calls)
     h_psi:calbec :   4386.47s CPU   4491.53s WALL (  668732 calls)
     vloc_psi     :  25909.77s CPU  26842.74s WALL (  668732 calls)
     add_vuspsi   :   3598.23s CPU   3658.63s WALL (  668732 calls)

     General routines
     calbec       :   6375.11s CPU   6518.67s WALL (  865396 calls)
     fft          :     78.13s CPU     81.88s WALL (   11258 calls)
     ffts         :      1.04s CPU      1.08s WALL (    1291 calls)
     fftw         :  15945.24s CPU  16478.84s WALL (43775918 calls)
     interpolate  :     14.15s CPU     14.74s WALL (    1291 calls)

     Parallel routines
     fft_scatter  :   4505.72s CPU   4729.72s WALL (43788467 calls)

     PWSCF        :    19h11m CPU       19h43m WALL


   This run was terminated on:   6: 6:39   9May2018            

=------------------------------------------------------------------------------=
   JOB DONE.
=------------------------------------------------------------------------------=
