
     Program PWSCF v.6.3MaX starts on 27Feb2020 at  9:35:44 

     This program is part of the open-source Quantum ESPRESSO suite
     for quantum simulation of materials; please cite
         "P. Giannozzi et al., J. Phys.:Condens. Matter 21 395502 (2009);
         "P. Giannozzi et al., J. Phys.:Condens. Matter 29 465901 (2017);
          URL http://www.quantum-espresso.org", 
     in publications or presentations arising from this work. More details at
     http://www.quantum-espresso.org/quote

     Parallel version (MPI), running on     4 processors

     MPI processes distributed on     1 nodes
     R & G space division:  proc/nbgrp/npool/nimage =       4
     Waiting for input...
     Reading input from standard input

     Current dimensions of program PWSCF are:
     Max number of different atomic species (ntypx) = 10
     Max number of k-points (npk) =  40000
     Max angular momentum in pseudopotentials (lmaxx) =  3
     Message from routine iosys:
     minimal I/O required, wf_collect reset to FALSE

     Subspace diagonalization in iterative solution of the eigenvalue problem:
     a serial algorithm will be used

 
     Parallelization info
     --------------------
     sticks:   dense  smooth     PW     G-vecs:    dense   smooth      PW
     Min         910     364    105                36370     9180    1427
     Max         911     365    106                36375     9183    1428
     Sum        3643    1459    421               145493    36727    5709
 


     bravais-lattice index     =            0
     lattice parameter (alat)  =       1.8897  a.u.
     unit-cell volume          =    1077.7903 (a.u.)^3
     number of atoms/cell      =            8
     number of atomic types    =            2
     number of electrons       =       103.00
     number of Kohn-Sham states=           62
     kinetic-energy cutoff     =      40.0000  Ry
     charge density cutoff     =     400.0000  Ry
     convergence threshold     =      1.0E-10
     mixing beta               =       0.6000
     number of iterations used =            8  plain     mixing
     Exchange-correlation      = SLA PW PBE PBE ( 1  4  3  4 0 0)
     nstep                     =           50


     celldm(1)=   1.889726  celldm(2)=   0.000000  celldm(3)=   0.000000
     celldm(4)=   0.000000  celldm(5)=   0.000000  celldm(6)=   0.000000

     crystal axes: (cart. coord. in units of alat)
               a(1) = (   3.045004  -5.274102   0.000000 )  
               a(2) = (  -6.090008   0.000000   0.000000 )  
               a(3) = (   0.000000   0.000000  -4.972461 )  

     reciprocal axes: (cart. coord. in units 2 pi/alat)
               b(1) = (  0.000000 -0.189606  0.000000 )  
               b(2) = ( -0.164203 -0.094803  0.000000 )  
               b(3) = (  0.000000  0.000000 -0.201108 )  


     PseudoPot. # 1 for Nb read from file:
     ./Nb.pbe-nsp-van.UPF
     MD5 check sum: 0a22fc7fb0ba19a08ca5db297a5d2854
     Pseudo is Ultrasoft + core correction, Zval = 13.0
     Generated by new atomic code, or converted to UPF format
     Using radial grid of  887 points,  6 beta functions with: 
                l(1) =   0
                l(2) =   0
                l(3) =   1
                l(4) =   1
                l(5) =   2
                l(6) =   2
     Q(r) pseudized with  6 coefficients,  rinner =    1.000   1.000   1.000
                                                       1.000   1.000

     PseudoPot. # 2 for Ti read from file:
     ./Ti.pbe-sp-van_ak.UPF
     MD5 check sum: f98fea3e8887528921fefa5636a534ca
     Pseudo is Ultrasoft, Zval = 12.0
     Generated by new atomic code, or converted to UPF format
     Using radial grid of  851 points,  6 beta functions with: 
                l(1) =   0
                l(2) =   0
                l(3) =   1
                l(4) =   1
                l(5) =   2
                l(6) =   2
     Q(r) pseudized with  8 coefficients,  rinner =    1.000   1.000   1.000
                                                       1.000   1.000

     atomic species   valence    mass     pseudopotential
        Nb            13.00    92.90638     Nb( 1.00)
        Ti            12.00    47.86700     Ti( 1.00)

     12 Sym. Ops. (no inversion) found



   Cartesian axes

     site n.     atom                  positions (alat units)
         1           Ti  tau(   1) = (  -3.0450042  -5.2741024  -4.9724614  )
         2           Nb  tau(   2) = (   0.0000015  -1.7580350  -2.4862307  )
         3           Nb  tau(   3) = (   0.0000000  -5.2741024  -4.9724614  )
         4           Nb  tau(   4) = (  -3.0450027  -1.7580350  -2.4862307  )
         5           Nb  tau(   5) = (  -4.5675063  -2.6370512  -4.9724614  )
         6           Nb  tau(   6) = (   1.5225036  -4.3950862  -2.4862307  )
         7           Nb  tau(   7) = (  -1.5225021  -2.6370512  -4.9724614  )
         8           Nb  tau(   8) = (  -1.5225006  -4.3950862  -2.4862307  )

     number of k points=    98  Marzari-Vanderbilt smearing, width (Ry)=  0.0200
                       cart. coord. in units 2pi/alat
        k(    1) = (   0.0000000   0.0000000   0.0000000), wk =   0.0016667
        k(    2) = (   0.0000000   0.0000000  -0.0167590), wk =   0.0033333
        k(    3) = (   0.0000000   0.0000000  -0.0335179), wk =   0.0033333
        k(    4) = (   0.0000000   0.0000000  -0.0502769), wk =   0.0033333
        k(    5) = (   0.0000000   0.0000000  -0.0670359), wk =   0.0033333
        k(    6) = (   0.0000000   0.0000000  -0.0837949), wk =   0.0033333
        k(    7) = (   0.0000000   0.0000000   0.1005538), wk =   0.0016667
        k(    8) = (  -0.0164203  -0.0094803   0.0000000), wk =   0.0100000
        k(    9) = (  -0.0164203  -0.0094803  -0.0167590), wk =   0.0200000
        k(   10) = (  -0.0164203  -0.0094803  -0.0335179), wk =   0.0200000
        k(   11) = (  -0.0164203  -0.0094803  -0.0502769), wk =   0.0200000
        k(   12) = (  -0.0164203  -0.0094803  -0.0670359), wk =   0.0200000
        k(   13) = (  -0.0164203  -0.0094803  -0.0837949), wk =   0.0200000
        k(   14) = (  -0.0164203  -0.0094803   0.1005538), wk =   0.0100000
        k(   15) = (  -0.0328407  -0.0189606   0.0000000), wk =   0.0100000
        k(   16) = (  -0.0328407  -0.0189606  -0.0167590), wk =   0.0200000
        k(   17) = (  -0.0328407  -0.0189606  -0.0335179), wk =   0.0200000
        k(   18) = (  -0.0328407  -0.0189606  -0.0502769), wk =   0.0200000
        k(   19) = (  -0.0328407  -0.0189606  -0.0670359), wk =   0.0200000
        k(   20) = (  -0.0328407  -0.0189606  -0.0837949), wk =   0.0200000
        k(   21) = (  -0.0328407  -0.0189606   0.1005538), wk =   0.0100000
        k(   22) = (  -0.0492610  -0.0284409   0.0000000), wk =   0.0100000
        k(   23) = (  -0.0492610  -0.0284409  -0.0167590), wk =   0.0200000
        k(   24) = (  -0.0492610  -0.0284409  -0.0335179), wk =   0.0200000
        k(   25) = (  -0.0492610  -0.0284409  -0.0502769), wk =   0.0200000
        k(   26) = (  -0.0492610  -0.0284409  -0.0670359), wk =   0.0200000
        k(   27) = (  -0.0492610  -0.0284409  -0.0837949), wk =   0.0200000
        k(   28) = (  -0.0492610  -0.0284409   0.1005538), wk =   0.0100000
        k(   29) = (  -0.0656814  -0.0379211   0.0000000), wk =   0.0100000
        k(   30) = (  -0.0656814  -0.0379211  -0.0167590), wk =   0.0200000
        k(   31) = (  -0.0656814  -0.0379211  -0.0335179), wk =   0.0200000
        k(   32) = (  -0.0656814  -0.0379211  -0.0502769), wk =   0.0200000
        k(   33) = (  -0.0656814  -0.0379211  -0.0670359), wk =   0.0200000
        k(   34) = (  -0.0656814  -0.0379211  -0.0837949), wk =   0.0200000
        k(   35) = (  -0.0656814  -0.0379211   0.1005538), wk =   0.0100000
        k(   36) = (   0.0821017   0.0474014   0.0000000), wk =   0.0050000
        k(   37) = (   0.0821017   0.0474014  -0.0167590), wk =   0.0100000
        k(   38) = (   0.0821017   0.0474014  -0.0335179), wk =   0.0100000
        k(   39) = (   0.0821017   0.0474014  -0.0502769), wk =   0.0100000
        k(   40) = (   0.0821017   0.0474014  -0.0670359), wk =   0.0100000
        k(   41) = (   0.0821017   0.0474014  -0.0837949), wk =   0.0100000
        k(   42) = (   0.0821017   0.0474014   0.1005538), wk =   0.0050000
        k(   43) = (  -0.0164203  -0.0284409   0.0000000), wk =   0.0100000
        k(   44) = (  -0.0164203  -0.0284409  -0.0167590), wk =   0.0200000
        k(   45) = (  -0.0164203  -0.0284409  -0.0335179), wk =   0.0200000
        k(   46) = (  -0.0164203  -0.0284409  -0.0502769), wk =   0.0200000
        k(   47) = (  -0.0164203  -0.0284409  -0.0670359), wk =   0.0200000
        k(   48) = (  -0.0164203  -0.0284409  -0.0837949), wk =   0.0200000
        k(   49) = (  -0.0164203  -0.0284409   0.1005538), wk =   0.0100000
        k(   50) = (  -0.0328407  -0.0379211   0.0000000), wk =   0.0200000
        k(   51) = (  -0.0328407  -0.0379211  -0.0167590), wk =   0.0400000
        k(   52) = (  -0.0328407  -0.0379211  -0.0335179), wk =   0.0400000
        k(   53) = (  -0.0328407  -0.0379211  -0.0502769), wk =   0.0400000
        k(   54) = (  -0.0328407  -0.0379211  -0.0670359), wk =   0.0400000
        k(   55) = (  -0.0328407  -0.0379211  -0.0837949), wk =   0.0400000
        k(   56) = (  -0.0328407  -0.0379211   0.1005538), wk =   0.0200000
        k(   57) = (  -0.0492610  -0.0474014   0.0000000), wk =   0.0200000
        k(   58) = (  -0.0492610  -0.0474014  -0.0167590), wk =   0.0400000
        k(   59) = (  -0.0492610  -0.0474014  -0.0335179), wk =   0.0400000
        k(   60) = (  -0.0492610  -0.0474014  -0.0502769), wk =   0.0400000
        k(   61) = (  -0.0492610  -0.0474014  -0.0670359), wk =   0.0400000
        k(   62) = (  -0.0492610  -0.0474014  -0.0837949), wk =   0.0400000
        k(   63) = (  -0.0492610  -0.0474014   0.1005538), wk =   0.0200000
        k(   64) = (  -0.0656814  -0.0568817   0.0000000), wk =   0.0200000
        k(   65) = (  -0.0656814  -0.0568817  -0.0167590), wk =   0.0400000
        k(   66) = (  -0.0656814  -0.0568817  -0.0335179), wk =   0.0400000
        k(   67) = (  -0.0656814  -0.0568817  -0.0502769), wk =   0.0400000
        k(   68) = (  -0.0656814  -0.0568817  -0.0670359), wk =   0.0400000
        k(   69) = (  -0.0656814  -0.0568817  -0.0837949), wk =   0.0400000
        k(   70) = (  -0.0656814  -0.0568817   0.1005538), wk =   0.0200000
        k(   71) = (  -0.0328407  -0.0568817   0.0000000), wk =   0.0100000
        k(   72) = (  -0.0328407  -0.0568817  -0.0167590), wk =   0.0200000
        k(   73) = (  -0.0328407  -0.0568817  -0.0335179), wk =   0.0200000
        k(   74) = (  -0.0328407  -0.0568817  -0.0502769), wk =   0.0200000
        k(   75) = (  -0.0328407  -0.0568817  -0.0670359), wk =   0.0200000
        k(   76) = (  -0.0328407  -0.0568817  -0.0837949), wk =   0.0200000
        k(   77) = (  -0.0328407  -0.0568817   0.1005538), wk =   0.0100000
        k(   78) = (  -0.0492610  -0.0663620   0.0000000), wk =   0.0200000
        k(   79) = (  -0.0492610  -0.0663620  -0.0167590), wk =   0.0400000
        k(   80) = (  -0.0492610  -0.0663620  -0.0335179), wk =   0.0400000
        k(   81) = (  -0.0492610  -0.0663620  -0.0502769), wk =   0.0400000
        k(   82) = (  -0.0492610  -0.0663620  -0.0670359), wk =   0.0400000
        k(   83) = (  -0.0492610  -0.0663620  -0.0837949), wk =   0.0400000
        k(   84) = (  -0.0492610  -0.0663620   0.1005538), wk =   0.0200000
        k(   85) = (  -0.0656814  -0.0758423   0.0000000), wk =   0.0100000
        k(   86) = (  -0.0656814  -0.0758423  -0.0167590), wk =   0.0200000
        k(   87) = (  -0.0656814  -0.0758423  -0.0335179), wk =   0.0200000
        k(   88) = (  -0.0656814  -0.0758423  -0.0502769), wk =   0.0200000
        k(   89) = (  -0.0656814  -0.0758423  -0.0670359), wk =   0.0200000
        k(   90) = (  -0.0656814  -0.0758423  -0.0837949), wk =   0.0200000
        k(   91) = (  -0.0656814  -0.0758423   0.1005538), wk =   0.0100000
        k(   92) = (  -0.0492610  -0.0853226   0.0000000), wk =   0.0100000
        k(   93) = (  -0.0492610  -0.0853226  -0.0167590), wk =   0.0200000
        k(   94) = (  -0.0492610  -0.0853226  -0.0335179), wk =   0.0200000
        k(   95) = (  -0.0492610  -0.0853226  -0.0502769), wk =   0.0200000
        k(   96) = (  -0.0492610  -0.0853226  -0.0670359), wk =   0.0200000
        k(   97) = (  -0.0492610  -0.0853226  -0.0837949), wk =   0.0200000
        k(   98) = (  -0.0492610  -0.0853226   0.1005538), wk =   0.0100000

     Dense  grid:   145493 G-vectors     FFT dimensions: (  75,  75,  60)

     Smooth grid:    36727 G-vectors     FFT dimensions: (  48,  48,  40)

     Estimated max dynamical RAM per process >     249.85 MB

     Estimated total dynamical RAM >     999.39 MB

     Check: negative/imaginary core charge=   -0.000001    0.000000

     Initial potential from superposition of free atoms

     starting charge  101.98082, renormalised to  103.00000
     Starting wfcs are  101 randomized atomic wfcs

     total cpu time spent up to now is       10.6 secs

     Self-consistent Calculation

     iteration #  1     ecut=    40.00 Ry     beta= 0.60
     Davidson diagonalization with overlap
     ethr =  1.00E-02,  avg # of iterations =  2.0

     total cpu time spent up to now is       27.9 secs

     total energy              =    -918.60286986 Ry
     Harris-Foulkes estimate   =    -944.65911289 Ry
     estimated scf accuracy    <      32.57465032 Ry

     iteration #  2     ecut=    40.00 Ry     beta= 0.60
     Davidson diagonalization with overlap
     ethr =  1.00E-02,  avg # of iterations =  5.2

     total cpu time spent up to now is       57.4 secs

     total energy              =    -925.85619751 Ry
     Harris-Foulkes estimate   =    -978.22775269 Ry
     estimated scf accuracy    <     163.82329067 Ry

     iteration #  3     ecut=    40.00 Ry     beta= 0.60
     Davidson diagonalization with overlap
     ethr =  1.00E-02,  avg # of iterations =  5.0

     total cpu time spent up to now is       84.1 secs

     total energy              =    -943.01308398 Ry
     Harris-Foulkes estimate   =    -945.43464324 Ry
     estimated scf accuracy    <      12.42537765 Ry

     iteration #  4     ecut=    40.00 Ry     beta= 0.60
     Davidson diagonalization with overlap
     ethr =  1.00E-02,  avg # of iterations =  2.2

     total cpu time spent up to now is       99.6 secs

     total energy              =    -943.17493077 Ry
     Harris-Foulkes estimate   =    -943.85372610 Ry
     estimated scf accuracy    <       6.98337940 Ry

     iteration #  5     ecut=    40.00 Ry     beta= 0.60
     Davidson diagonalization with overlap
     ethr =  6.78E-03,  avg # of iterations =  1.1

     total cpu time spent up to now is      113.5 secs

     total energy              =    -942.79924467 Ry
     Harris-Foulkes estimate   =    -943.40128540 Ry
     estimated scf accuracy    <       5.21958280 Ry

     iteration #  6     ecut=    40.00 Ry     beta= 0.60
     Davidson diagonalization with overlap
     ethr =  5.07E-03,  avg # of iterations =  1.0

     total cpu time spent up to now is      127.4 secs

     total energy              =    -941.70831502 Ry
     Harris-Foulkes estimate   =    -942.86156381 Ry
     estimated scf accuracy    <       3.85230314 Ry

     iteration #  7     ecut=    40.00 Ry     beta= 0.60
     Davidson diagonalization with overlap
     ethr =  3.74E-03,  avg # of iterations =  3.3

     total cpu time spent up to now is      144.5 secs

     total energy              =    -941.97434962 Ry
     Harris-Foulkes estimate   =    -941.98607576 Ry
     estimated scf accuracy    <       0.26930600 Ry

     iteration #  8     ecut=    40.00 Ry     beta= 0.60
     Davidson diagonalization with overlap
     ethr =  2.61E-04,  avg # of iterations =  4.8

     total cpu time spent up to now is      165.1 secs

     total energy              =    -941.85469209 Ry
     Harris-Foulkes estimate   =    -942.00000743 Ry
     estimated scf accuracy    <       0.32334066 Ry

     iteration #  9     ecut=    40.00 Ry     beta= 0.60
     Davidson diagonalization with overlap
     ethr =  2.61E-04,  avg # of iterations =  5.3

     total cpu time spent up to now is      193.2 secs

     total energy              =    -941.44535484 Ry
     Harris-Foulkes estimate   =    -942.21240769 Ry
     estimated scf accuracy    <       6.50406165 Ry

     iteration # 10     ecut=    40.00 Ry     beta= 0.60
     Davidson diagonalization with overlap
     ethr =  2.61E-04,  avg # of iterations =  7.0

     total cpu time spent up to now is      221.3 secs

     total energy              =    -941.99685801 Ry
     Harris-Foulkes estimate   =    -942.00791755 Ry
     estimated scf accuracy    <       0.40966423 Ry

     iteration # 11     ecut=    40.00 Ry     beta= 0.60
     Davidson diagonalization with overlap
     ethr =  2.61E-04,  avg # of iterations =  1.0

     total cpu time spent up to now is      235.7 secs

     total energy              =    -941.96699498 Ry
     Harris-Foulkes estimate   =    -941.99730729 Ry
     estimated scf accuracy    <       0.36376135 Ry

     iteration # 12     ecut=    40.00 Ry     beta= 0.60
     Davidson diagonalization with overlap
     ethr =  2.61E-04,  avg # of iterations =  2.1

     total cpu time spent up to now is      254.7 secs

     total energy              =    -941.97168188 Ry
     Harris-Foulkes estimate   =    -941.97328819 Ry
     estimated scf accuracy    <       0.11285142 Ry

     iteration # 13     ecut=    40.00 Ry     beta= 0.60
     Davidson diagonalization with overlap
     ethr =  1.10E-04,  avg # of iterations =  1.5

     total cpu time spent up to now is      269.5 secs

     total energy              =    -941.96755087 Ry
     Harris-Foulkes estimate   =    -941.97267533 Ry
     estimated scf accuracy    <       0.09707007 Ry

     iteration # 14     ecut=    40.00 Ry     beta= 0.60
     Davidson diagonalization with overlap
     ethr =  9.42E-05,  avg # of iterations =  1.3

     total cpu time spent up to now is      284.2 secs

     total energy              =    -941.96518939 Ry
     Harris-Foulkes estimate   =    -941.96879635 Ry
     estimated scf accuracy    <       0.04590640 Ry

     iteration # 15     ecut=    40.00 Ry     beta= 0.60
     Davidson diagonalization with overlap
     ethr =  4.46E-05,  avg # of iterations =  5.7

     total cpu time spent up to now is      306.2 secs

     total energy              =    -941.96976926 Ry
     Harris-Foulkes estimate   =    -941.96922011 Ry
     estimated scf accuracy    <       0.00051859 Ry

     iteration # 16     ecut=    40.00 Ry     beta= 0.60
     Davidson diagonalization with overlap
     ethr =  5.03E-07,  avg # of iterations =  7.2

     total cpu time spent up to now is      339.5 secs

     total energy              =    -941.97195790 Ry
     Harris-Foulkes estimate   =    -941.97221164 Ry
     estimated scf accuracy    <       0.04244448 Ry

     iteration # 17     ecut=    40.00 Ry     beta= 0.60
     Davidson diagonalization with overlap
     ethr =  5.03E-07,  avg # of iterations =  1.0

     total cpu time spent up to now is      353.9 secs

     total energy              =    -941.96931566 Ry
     Harris-Foulkes estimate   =    -941.97196851 Ry
     estimated scf accuracy    <       0.04031326 Ry

     iteration # 18     ecut=    40.00 Ry     beta= 0.60
     Davidson diagonalization with overlap
     ethr =  5.03E-07,  avg # of iterations =  6.5

     total cpu time spent up to now is      384.0 secs

     total energy              =    -941.96970200 Ry
     Harris-Foulkes estimate   =    -941.97001249 Ry
     estimated scf accuracy    <       0.01174006 Ry

     iteration # 19     ecut=    40.00 Ry     beta= 0.60
     Davidson diagonalization with overlap
     ethr =  5.03E-07,  avg # of iterations =  3.6

     total cpu time spent up to now is      409.4 secs

     total energy              =    -941.96979397 Ry
     Harris-Foulkes estimate   =    -941.96973795 Ry
     estimated scf accuracy    <       0.00790271 Ry

     iteration # 20     ecut=    40.00 Ry     beta= 0.60
     Davidson diagonalization with overlap
     ethr =  5.03E-07,  avg # of iterations =  1.0

     total cpu time spent up to now is      425.4 secs

     total energy              =    -941.97029515 Ry
     Harris-Foulkes estimate   =    -941.96979763 Ry
     estimated scf accuracy    <       0.00830223 Ry

     iteration # 21     ecut=    40.00 Ry     beta= 0.60
     Davidson diagonalization with overlap
     ethr =  5.03E-07,  avg # of iterations =  3.8

     total cpu time spent up to now is      443.1 secs

     total energy              =    -941.96723410 Ry
     Harris-Foulkes estimate   =    -941.97039503 Ry
     estimated scf accuracy    <       0.01665548 Ry

     iteration # 22     ecut=    40.00 Ry     beta= 0.60
     Davidson diagonalization with overlap
     ethr =  5.03E-07,  avg # of iterations =  6.7

     total cpu time spent up to now is      474.7 secs

     total energy              =    -941.96863000 Ry
     Harris-Foulkes estimate   =    -941.96959814 Ry
     estimated scf accuracy    <       0.00625147 Ry

     iteration # 23     ecut=    40.00 Ry     beta= 0.60
     Davidson diagonalization with overlap
     ethr =  5.03E-07,  avg # of iterations =  5.7

     total cpu time spent up to now is      501.6 secs

     total energy              =    -941.96921096 Ry
     Harris-Foulkes estimate   =    -941.96922289 Ry
     estimated scf accuracy    <       0.00043239 Ry

     iteration # 24     ecut=    40.00 Ry     beta= 0.60
     Davidson diagonalization with overlap
     ethr =  4.20E-07,  avg # of iterations =  1.0

     total cpu time spent up to now is      516.0 secs

     total energy              =    -941.96918039 Ry
     Harris-Foulkes estimate   =    -941.96921404 Ry
     estimated scf accuracy    <       0.00038463 Ry

     iteration # 25     ecut=    40.00 Ry     beta= 0.60
     Davidson diagonalization with overlap
     ethr =  3.73E-07,  avg # of iterations =  1.1

     total cpu time spent up to now is      530.5 secs

     total energy              =    -941.96917702 Ry
     Harris-Foulkes estimate   =    -941.96918899 Ry
     estimated scf accuracy    <       0.00008837 Ry

     iteration # 26     ecut=    40.00 Ry     beta= 0.60
     Davidson diagonalization with overlap
     ethr =  8.58E-08,  avg # of iterations =  4.1

     total cpu time spent up to now is      550.4 secs

     total energy              =    -941.96918989 Ry
     Harris-Foulkes estimate   =    -941.96919124 Ry
     estimated scf accuracy    <       0.00001729 Ry

     iteration # 27     ecut=    40.00 Ry     beta= 0.60
     Davidson diagonalization with overlap
     ethr =  1.68E-08,  avg # of iterations =  1.2

     total cpu time spent up to now is      565.0 secs

     total energy              =    -941.96918986 Ry
     Harris-Foulkes estimate   =    -941.96919022 Ry
     estimated scf accuracy    <       0.00000647 Ry

     iteration # 28     ecut=    40.00 Ry     beta= 0.60
     Davidson diagonalization with overlap
     ethr =  6.28E-09,  avg # of iterations =  3.0

     total cpu time spent up to now is      581.7 secs

     total energy              =    -941.96918989 Ry
     Harris-Foulkes estimate   =    -941.96919008 Ry
     estimated scf accuracy    <       0.00000188 Ry

     iteration # 29     ecut=    40.00 Ry     beta= 0.60
     Davidson diagonalization with overlap
     ethr =  1.83E-09,  avg # of iterations =  3.8

     total cpu time spent up to now is      599.8 secs

     total energy              =    -941.96919005 Ry
     Harris-Foulkes estimate   =    -941.96919005 Ry
     estimated scf accuracy    <       0.00000002 Ry

     iteration # 30     ecut=    40.00 Ry     beta= 0.60
     Davidson diagonalization with overlap
     ethr =  2.28E-11,  avg # of iterations =  5.2

     total cpu time spent up to now is      624.1 secs

     total energy              =    -941.96919006 Ry
     Harris-Foulkes estimate   =    -941.96919006 Ry
     estimated scf accuracy    <          1.2E-09 Ry

     iteration # 31     ecut=    40.00 Ry     beta= 0.60
     Davidson diagonalization with overlap
     ethr =  1.14E-12,  avg # of iterations =  3.6

     total cpu time spent up to now is      643.1 secs

     total energy              =    -941.96919006 Ry
     Harris-Foulkes estimate   =    -941.96919006 Ry
     estimated scf accuracy    <          2.5E-10 Ry

     iteration # 32     ecut=    40.00 Ry     beta= 0.60
     Davidson diagonalization with overlap
     ethr =  2.43E-13,  avg # of iterations =  2.1

     total cpu time spent up to now is      659.3 secs

     total energy              =    -941.96919006 Ry
     Harris-Foulkes estimate   =    -941.96919006 Ry
     estimated scf accuracy    <          1.6E-10 Ry

     iteration # 33     ecut=    40.00 Ry     beta= 0.60
     Davidson diagonalization with overlap
     ethr =  1.56E-13,  avg # of iterations =  2.8

     total cpu time spent up to now is      675.6 secs

     End of self-consistent calculation

          k = 0.0000 0.0000 0.0000 (  4561 PWs)   bands (ev):

   -41.2692 -39.1788 -39.0564 -39.0564 -39.0511 -39.0088 -38.9980 -38.9980
   -17.5541 -17.5541 -17.5098 -15.6050 -15.5753 -15.5151 -15.5151 -15.4466
   -15.2888 -15.2888 -15.2209 -15.2209 -15.0631 -15.0555 -14.9675 -14.9675
   -14.9075 -14.9075 -14.8493 -14.8493 -14.8396 -14.7353 -14.7353 -14.7231
     9.6197  12.1295  12.4859  12.4901  12.4901  12.6930  12.8128  12.8942
    12.8942  13.0807  13.0807  15.2523  15.2523  15.4439  15.6657  15.6885
    15.7183  15.7183  15.8393  15.9113  15.9113  15.9707  15.9707  16.4140
    16.4140  16.5102  16.5102  16.5256  16.6957  17.2460

          k = 0.0000 0.0000-0.0168 (  4591 PWs)   bands (ev):

   -41.2692 -39.1767 -39.0557 -39.0557 -39.0531 -39.0090 -38.9987 -38.9987
   -17.5546 -17.5546 -17.5095 -15.6161 -15.5545 -15.5262 -15.5262 -15.4521
   -15.2993 -15.2993 -15.2008 -15.2008 -15.0596 -15.0462 -14.9672 -14.9672
   -14.9029 -14.9029 -14.8500 -14.8500 -14.8434 -14.7377 -14.7369 -14.7369
     9.6788  12.1307  12.3876  12.4610  12.4610  12.5664  12.7384  12.7384
    13.1069  13.3427  13.3427  14.9221  14.9221  14.9796  15.7151  15.7965
    15.8188  15.8188  15.8931  15.8931  16.1743  16.2465  16.2465  16.3989
    16.3989  16.4773  16.4773  16.4945  16.5800  17.3189

          k = 0.0000 0.0000-0.0335 (  4597 PWs)   bands (ev):

   -41.2691 -39.1703 -39.0592 -39.0537 -39.0537 -39.0095 -39.0007 -39.0007
   -17.5554 -17.5554 -17.5087 -15.6276 -15.5520 -15.5520 -15.5262 -15.4529
   -15.3228 -15.3228 -15.1539 -15.1539 -15.0491 -15.0228 -14.9650 -14.9650
   -14.8935 -14.8935 -14.8542 -14.8519 -14.8519 -14.7802 -14.7416 -14.7416
     9.8529  12.1118  12.2056  12.3442  12.3442  12.5639  12.6966  12.6966
    13.4860  13.7023  13.7023  14.4599  14.4599  14.4781  15.6926  15.8240
    15.8240  15.8623  15.9810  15.9810  16.1766  16.2988  16.2988  16.3898
    16.3898  16.4459  16.7996  16.7996  16.8147  17.5148

          k = 0.0000 0.0000-0.0503 (  4639 PWs)   bands (ev):

   -41.2690 -39.1601 -39.0691 -39.0508 -39.0508 -39.0102 -39.0036 -39.0036
   -17.5566 -17.5566 -17.5080 -15.6354 -15.5802 -15.5802 -15.5268 -15.4104
   -15.3507 -15.3507 -15.0963 -15.0963 -15.0326 -14.9954 -14.9597 -14.9597
   -14.8878 -14.8878 -14.8714 -14.8539 -14.8539 -14.8460 -14.7483 -14.7483
    10.1311  12.0280  12.1186  12.2377  12.2377  12.5585  12.7233  12.7233
    13.8235  13.9657  13.9657  14.0946  14.1269  14.1269  15.5364  15.7670
    15.7818  15.7818  16.1044  16.1920  16.1920  16.2296  16.2296  16.3203
    16.3203  16.4216  17.2886  17.2886  17.3358  17.7851

          k = 0.0000 0.0000-0.0670 (  4651 PWs)   bands (ev):

   -41.2689 -39.1469 -39.0822 -39.0473 -39.0473 -39.0107 -39.0070 -39.0070
   -17.5578 -17.5578 -17.5071 -15.6424 -15.6034 -15.6034 -15.5384 -15.3764
   -15.3764 -15.3359 -15.0378 -15.0378 -15.0115 -14.9792 -14.9525 -14.9525
   -14.9221 -14.8931 -14.8931 -14.8930 -14.8545 -14.8545 -14.7556 -14.7556
    10.4939  11.9431  12.0318  12.2075  12.2075  12.4934  12.6933  12.6933
    13.8498  13.8498  13.8546  14.0595  14.1922  14.1922  15.3137  15.4630
    15.7644  15.7644  16.1006  16.1006  16.4366  16.4487  16.4487  16.4944
    16.4944  16.5285  17.6159  17.6159  17.6691  18.0466

          k = 0.0000 0.0000-0.0838 (  4621 PWs)   bands (ev):

   -41.2689 -39.1315 -39.0975 -39.0444 -39.0444 -39.0110 -39.0099 -39.0099
   -17.5585 -17.5585 -17.5062 -15.6488 -15.6181 -15.6181 -15.5452 -15.3942
   -15.3942 -15.2467 -15.0397 -14.9888 -14.9850 -14.9850 -14.9461 -14.9461
   -14.9405 -14.9162 -14.9112 -14.9112 -14.8546 -14.8546 -14.7614 -14.7614
    10.9097  11.7023  12.0652  12.2621  12.2621  12.3521  12.5606  12.5606
    13.8165  13.8641  13.8641  14.0983  14.1504  14.1504  15.1046  15.3217
    15.7794  15.7794  15.9820  15.9820  16.7738  16.7738  16.8227  16.8513
    16.8688  16.8688  17.6056  17.6056  17.6179  17.7738

          k = 0.0000 0.0000 0.1006 (  4650 PWs)   bands (ev):

   -41.2688 -39.1179 -39.1111 -39.0432 -39.0432 -39.0111 -39.0111 -39.0111
   -17.5588 -17.5588 -17.5062 -15.6516 -15.6231 -15.6231 -15.5470 -15.4006
   -15.4006 -15.1712 -15.1154 -14.9753 -14.9452 -14.9452 -14.9430 -14.9430
   -14.9393 -14.9393 -14.9369 -14.9298 -14.8547 -14.8547 -14.7637 -14.7637
    11.2968  11.3716  12.1836  12.1921  12.3769  12.3769  12.4065  12.4065
    13.8409  13.9825  13.9825  14.0243  14.0243  14.0715  15.0346  15.2725
    15.8038  15.8038  15.9205  15.9205  17.0746  17.0746  17.1831  17.2588
    17.2588  17.3098  17.3237  17.3501  17.3501  17.3526

          k =-0.0164-0.0095 0.0000 (  4604 PWs)   bands (ev):

   -41.2692 -39.1762 -39.0595 -39.0564 -39.0499 -39.0093 -38.9983 -38.9980
   -17.5537 -17.5529 -17.5097 -15.5924 -15.5695 -15.5060 -15.5009 -15.4350
   -15.2883 -15.2805 -15.2337 -15.2213 -15.0680 -15.0557 -14.9788 -14.9690
   -14.9071 -14.8986 -14.8645 -14.8556 -14.8437 -14.7537 -14.7384 -14.7250
     9.6954  12.1973  12.4719  12.5490  12.5713  12.7195  12.8459  12.9119
    12.9408  13.1023  13.1246  15.1702  15.1841  15.3566  15.6502  15.6527
    15.6556  15.7208  15.7404  15.9579  15.9776  15.9869  16.0659  16.3747
    16.4180  16.4601  16.4934  16.5149  16.5645  17.1720

          k =-0.0164-0.0095-0.0168 (  4595 PWs)   bands (ev):

   -41.2691 -39.1741 -39.0588 -39.0557 -39.0518 -39.0096 -38.9990 -38.9987
   -17.5540 -17.5531 -17.5094 -15.6045 -15.5482 -15.5172 -15.5123 -15.4408
   -15.2988 -15.2912 -15.2131 -15.2017 -15.0639 -15.0458 -14.9779 -14.9684
   -14.9035 -14.8953 -14.8649 -14.8563 -14.8464 -14.7601 -14.7401 -14.7346
     9.7540  12.1987  12.3998  12.4939  12.5129  12.6200  12.7820  12.7923
    13.1329  13.3612  13.3652  14.8813  14.8920  14.9524  15.6356  15.6866
    15.7684  15.8295  15.9531  16.0047  16.0992  16.2046  16.2148  16.2944
    16.3854  16.4122  16.4896  16.5303  16.5359  17.2542

          k =-0.0164-0.0095-0.0335 (  4605 PWs)   bands (ev):

   -41.2691 -39.1678 -39.0582 -39.0562 -39.0538 -39.0102 -39.0011 -39.0006
   -17.5548 -17.5539 -17.5087 -15.6161 -15.5429 -15.5395 -15.5184 -15.4433
   -15.3224 -15.3149 -15.1654 -15.1571 -15.0518 -15.0213 -14.9743 -14.9653
   -14.8980 -14.8894 -14.8657 -14.8588 -14.8527 -14.7918 -14.7490 -14.7449
     9.9266  12.1720  12.2473  12.3584  12.3899  12.6274  12.7469  12.7630
    13.5029  13.7027  13.7221  14.4409  14.4580  14.4942  15.6065  15.7642
    15.7943  15.8814  15.9128  15.9421  15.9818  16.3006  16.3742  16.4262
    16.4484  16.4950  16.6936  16.6967  16.7214  17.4698

          k =-0.0164-0.0095-0.0503 (  4621 PWs)   bands (ev):

   -41.2690 -39.1577 -39.0676 -39.0533 -39.0508 -39.0110 -39.0044 -39.0036
   -17.5560 -17.5549 -17.5079 -15.6239 -15.5710 -15.5671 -15.5169 -15.4047
   -15.3507 -15.3430 -15.1071 -15.1044 -15.0314 -14.9932 -14.9674 -14.9592
   -14.9009 -14.8899 -14.8688 -14.8662 -14.8554 -14.8482 -14.7590 -14.7518
    10.2026  12.0760  12.1805  12.2579  12.2856  12.6212  12.7697  12.7927
    13.8097  13.9542  13.9634  14.0771  14.1717  14.2179  15.5067  15.5776
    15.7210  15.8263  15.8666  15.9567  16.1873  16.2749  16.2945  16.3229
    16.5181  16.5711  17.1119  17.1247  17.1738  17.7508

          k =-0.0164-0.0095-0.0670 (  4621 PWs)   bands (ev):

   -41.2689 -39.1446 -39.0805 -39.0495 -39.0474 -39.0117 -39.0080 -39.0070
   -17.5571 -17.5560 -17.5069 -15.6311 -15.5941 -15.5899 -15.5275 -15.3769
   -15.3689 -15.3329 -15.0554 -15.0485 -15.0028 -14.9777 -14.9598 -14.9515
   -14.9295 -14.9151 -14.8946 -14.8779 -14.8608 -14.8550 -14.7681 -14.7594
    10.5632  12.0087  12.0811  12.2308  12.2582  12.5518  12.7329  12.7602
    13.8277  13.8604  13.8692  14.1041  14.2398  14.2484  15.2191  15.3984
    15.6979  15.8183  16.0210  16.0781  16.1586  16.1602  16.4212  16.4902
    16.7777  16.8021  17.3479  17.3618  17.4578  18.0230

          k =-0.0164-0.0095-0.0838 (  4621 PWs)   bands (ev):

   -41.2688 -39.1294 -39.0956 -39.0462 -39.0444 -39.0127 -39.0105 -39.0099
   -17.5579 -17.5568 -17.5063 -15.6373 -15.6087 -15.6046 -15.5337 -15.3952
   -15.3869 -15.2460 -15.0437 -15.0165 -14.9970 -14.9745 -14.9538 -14.9452
   -14.9370 -14.9301 -14.9125 -14.8949 -14.8614 -14.8556 -14.7754 -14.7656
    10.9775  11.7720  12.1105  12.2863  12.3148  12.4069  12.5939  12.6218
    13.8426  13.8767  13.8920  14.1329  14.1854  14.2017  15.0324  15.2582
    15.7346  15.8342  15.9870  16.0314  16.3592  16.4033  16.7057  16.8653
    17.0966  17.1246  17.2460  17.2847  17.4448  17.7788

          k =-0.0164-0.0095 0.1006 (  4630 PWs)   bands (ev):

   -41.2688 -39.1163 -39.1087 -39.0449 -39.0432 -39.0136 -39.0111 -39.0111
   -17.5582 -17.5571 -17.5060 -15.6399 -15.6137 -15.6097 -15.5354 -15.4018
   -15.3933 -15.1721 -15.1181 -14.9926 -14.9772 -14.9680 -14.9519 -14.9349
   -14.9306 -14.9301 -14.9291 -14.9121 -14.8619 -14.8562 -14.7783 -14.7680
    11.3675  11.4364  12.2299  12.2389  12.4067  12.4248  12.4389  12.4710
    13.8780  14.0045  14.0206  14.0507  14.0679  14.1005  14.9794  15.2000
    15.7772  15.8608  15.9083  15.9681  16.7137  16.7758  16.8150  16.8872
    17.0661  17.1964  17.2778  17.3345  17.5295  17.5448

          k =-0.0328-0.0190 0.0000 (  4608 PWs)   bands (ev):

   -41.2691 -39.1687 -39.0685 -39.0565 -39.0462 -39.0108 -38.9992 -38.9979
   -17.5522 -17.5489 -17.5094 -15.5576 -15.5526 -15.4805 -15.4589 -15.4045
   -15.2831 -15.2671 -15.2566 -15.2224 -15.0842 -15.0560 -15.0109 -14.9715
   -14.9077 -14.9060 -14.8830 -14.8766 -14.8449 -14.8066 -14.7468 -14.7305
     9.9173  12.3697  12.4314  12.7162  12.7269  12.8220  12.9327  13.0062
    13.0735  13.1617  13.2619  14.9754  14.9936  15.1282  15.3799  15.5233
    15.5876  15.7608  15.8045  15.9575  15.9735  16.0875  16.1719  16.1771
    16.2742  16.3513  16.4106  16.4923  16.7378  17.0272

          k =-0.0328-0.0190-0.0168 (  4617 PWs)   bands (ev):

   -41.2691 -39.1666 -39.0677 -39.0558 -39.0480 -39.0112 -39.0001 -38.9986
   -17.5526 -17.5492 -17.5092 -15.5730 -15.5295 -15.4917 -15.4722 -15.4104
   -15.2939 -15.2682 -15.2436 -15.2043 -15.0783 -15.0460 -15.0081 -14.9703
   -14.9092 -14.9081 -14.8788 -14.8744 -14.8467 -14.8132 -14.7487 -14.7389
     9.9742  12.3435  12.4078  12.5996  12.6569  12.7954  12.9040  12.9523
    13.2131  13.4205  13.4257  14.7737  14.7924  14.8656  15.3784  15.5976
    15.6152  15.8173  15.8864  16.0179  16.0808  16.1117  16.1479  16.1603
    16.2769  16.3910  16.4281  16.5027  16.6941  17.1381

          k =-0.0328-0.0190-0.0335 (  4604 PWs)   bands (ev):

   -41.2690 -39.1605 -39.0652 -39.0538 -39.0534 -39.0122 -39.0025 -39.0006
   -17.5533 -17.5499 -17.5085 -15.5841 -15.5174 -15.5090 -15.4931 -15.4156
   -15.3178 -15.2923 -15.1923 -15.1669 -15.0601 -15.0236 -14.9980 -14.9663
   -14.9150 -14.9135 -14.8709 -14.8689 -14.8516 -14.8358 -14.7590 -14.7540
    10.1419  12.2433  12.3808  12.4593  12.5217  12.8030  12.8983  12.9563
    13.5306  13.7093  13.7543  14.4082  14.4531  14.5338  15.3939  15.4646
    15.5740  15.6787  15.9046  16.0092  16.0785  16.1777  16.3596  16.3741
    16.4117  16.5217  16.5227  16.5746  16.5990  17.3707

          k =-0.0328-0.0190-0.0503 (  4613 PWs)   bands (ev):

   -41.2689 -39.1507 -39.0646 -39.0593 -39.0508 -39.0138 -39.0058 -39.0036
   -17.5544 -17.5508 -17.5076 -15.5924 -15.5453 -15.5307 -15.4910 -15.3875
   -15.3472 -15.3211 -15.1318 -15.1264 -15.0303 -15.0032 -14.9788 -14.9608
   -14.9255 -14.9252 -14.8775 -14.8675 -14.8599 -14.8590 -14.7799 -14.7618
    10.4107  12.1620  12.3110  12.3974  12.4248  12.7863  12.9181  12.9938
    13.7448  13.9125  13.9353  14.1679  14.3008  14.3647  15.1589  15.4273
    15.5259  15.5583  15.7132  15.9944  16.1581  16.2462  16.3037  16.4489
    16.5919  16.6426  16.7340  16.7577  16.8510  17.6689

          k =-0.0328-0.0190-0.0670 (  4616 PWs)   bands (ev):

   -41.2689 -39.1380 -39.0757 -39.0556 -39.0474 -39.0161 -39.0090 -39.0070
   -17.5555 -17.5517 -17.5066 -15.5999 -15.5679 -15.5527 -15.4968 -15.3757
   -15.3475 -15.3244 -15.0894 -15.0730 -14.9986 -14.9868 -14.9843 -14.9583
   -14.9470 -14.9292 -14.9023 -14.8729 -14.8694 -14.8558 -14.7977 -14.7705
    10.7633  12.1464  12.2326  12.3273  12.4046  12.6994  12.8618  12.9514
    13.7999  13.8757  13.8852  14.2375  14.3657  14.4088  14.9221  15.3246
    15.5201  15.5812  15.7046  15.9730  16.1493  16.2387  16.3106  16.5327
    16.7251  16.7582  16.9486  16.9881  17.0544  17.9587

          k =-0.0328-0.0190-0.0838 (  4607 PWs)   bands (ev):

   -41.2688 -39.1235 -39.0900 -39.0514 -39.0445 -39.0192 -39.0106 -39.0099
   -17.5562 -17.5524 -17.5060 -15.6055 -15.5823 -15.5676 -15.5000 -15.3958
   -15.3659 -15.2455 -15.0599 -15.0559 -15.0246 -15.0000 -14.9742 -14.9391
   -14.9375 -14.9228 -14.9142 -14.8828 -14.8770 -14.8579 -14.8117 -14.7777
    11.1717  11.9697  12.2177  12.3757  12.4645  12.5404  12.7027  12.7970
    13.9030  13.9218  13.9706  14.2248  14.2932  14.3494  14.8296  15.1267
    15.6128  15.8541  15.8933  15.9919  16.0122  16.1867  16.4399  16.6158
    16.6637  16.8891  16.9724  17.2611  17.2624  17.7325

          k =-0.0328-0.0190 0.1006 (  4612 PWs)   bands (ev):

   -41.2688 -39.1117 -39.1017 -39.0496 -39.0432 -39.0208 -39.0112 -39.0111
   -17.5565 -17.5526 -17.5058 -15.6076 -15.5871 -15.5730 -15.5006 -15.4032
   -15.3725 -15.1778 -15.1282 -15.0270 -15.0231 -15.0021 -14.9720 -14.9284
   -14.9253 -14.9226 -14.9148 -14.8952 -14.8778 -14.8606 -14.8177 -14.7806
    11.5685  11.6208  12.3460  12.3508  12.5096  12.5413  12.5600  12.6561
    13.9807  14.0728  14.1205  14.1285  14.1814  14.1929  14.8359  15.0243
    15.6957  15.8439  16.0256  16.0851  16.2083  16.2732  16.3283  16.3490
    16.7139  16.8222  17.2716  17.3195  17.5279  17.5463

          k =-0.0493-0.0284 0.0000 (  4614 PWs)   bands (ev):

   -41.2690 -39.1572 -39.0819 -39.0567 -39.0408 -39.0131 -39.0009 -38.9978
   -17.5504 -17.5439 -17.5092 -15.5266 -15.5095 -15.4437 -15.3942 -15.3706
   -15.3110 -15.2570 -15.2236 -15.2214 -15.1108 -15.0597 -15.0563 -14.9736
   -14.9712 -14.9238 -14.9046 -14.8865 -14.8504 -14.8434 -14.7585 -14.7393
    10.2694  12.1601  12.6707  12.9060  12.9562  13.0411  13.0686  13.1919
    13.2423  13.2748  13.5021  14.7081  14.7269  14.8459  15.0964  15.2955
    15.4654  15.4662  15.8630  15.8841  15.9616  16.0240  16.0874  16.1426
    16.3713  16.4099  16.4992  16.5891  16.8334  16.8475

          k =-0.0493-0.0284-0.0168 (  4606 PWs)   bands (ev):

   -41.2690 -39.1552 -39.0808 -39.0560 -39.0423 -39.0139 -39.0018 -38.9985
   -17.5507 -17.5441 -17.5090 -15.5314 -15.4997 -15.4550 -15.4156 -15.3755
   -15.2847 -15.2615 -15.2373 -15.2057 -15.1014 -15.0633 -15.0384 -14.9730
   -14.9718 -14.9317 -14.8950 -14.8931 -14.8485 -14.8446 -14.7607 -14.7469
    10.3229  12.1467  12.6741  12.7842  12.8611  13.0272  13.1199  13.2082
    13.3370  13.4713  13.5656  14.5949  14.6124  14.7591  15.0957  15.2326
    15.4766  15.5041  15.8730  15.9231  15.9544  16.0386  16.0555  16.2503
    16.3807  16.3951  16.4425  16.4799  16.8864  17.0447

          k =-0.0493-0.0284-0.0335 (  4619 PWs)   bands (ev):

   -41.2690 -39.1493 -39.0777 -39.0540 -39.0472 -39.0160 -39.0041 -39.0005
   -17.5514 -17.5448 -17.5083 -15.5393 -15.4820 -15.4808 -15.4482 -15.3787
   -15.2952 -15.2604 -15.2175 -15.1822 -15.0735 -15.0567 -15.0097 -14.9738
   -14.9734 -14.9394 -14.9164 -14.8759 -14.8479 -14.8479 -14.7674 -14.7671
    10.4808  12.1243  12.6047  12.7183  12.7247  13.0285  13.1638  13.2553
    13.5554  13.7109  13.7211  14.3759  14.4466  14.6115  14.9870  15.1275
    15.4293  15.5156  15.8024  15.9291  16.0283  16.0362  16.1454  16.3037
    16.3098  16.4058  16.5045  16.5400  16.8334  17.2908

          k =-0.0493-0.0284-0.0503 (  4612 PWs)   bands (ev):

   -41.2689 -39.1401 -39.0730 -39.0552 -39.0509 -39.0193 -39.0070 -39.0035
   -17.5524 -17.5456 -17.5073 -15.5484 -15.5084 -15.4822 -15.4619 -15.3629
   -15.3239 -15.2891 -15.1566 -15.1565 -15.0412 -15.0362 -14.9927 -14.9781
   -14.9767 -14.9365 -14.9361 -14.8641 -14.8551 -14.8521 -14.7952 -14.7764
    10.7347  12.1266  12.5164  12.6414  12.6947  12.9887  13.1838  13.2977
    13.6784  13.8122  13.8445  14.3405  14.4631  14.5313  14.7309  15.1913
    15.2987  15.3779  15.5903  15.8787  16.1120  16.1440  16.2238  16.2311
    16.3438  16.5146  16.6534  16.6901  16.7214  17.5971

          k =-0.0493-0.0284-0.0670 (  4613 PWs)   bands (ev):

   -41.2688 -39.1281 -39.0707 -39.0627 -39.0475 -39.0241 -39.0094 -39.0070
   -17.5535 -17.5465 -17.5063 -15.5568 -15.5308 -15.5041 -15.4546 -15.3625
   -15.3161 -15.3107 -15.1294 -15.1009 -15.0380 -15.0240 -15.0129 -14.9698
   -14.9631 -14.9261 -14.9245 -14.8730 -14.8656 -14.8540 -14.8238 -14.7870
    11.0698  12.1780  12.4797  12.5795  12.6289  12.8652  13.0853  13.2236
    13.7867  13.8682  13.9113  14.4227  14.5088  14.6080  14.6381  15.1752
    15.2023  15.2930  15.4337  15.9232  16.0755  16.1117  16.1834  16.2174
    16.5371  16.5567  16.5962  16.8624  16.8780  17.8601

          k =-0.0493-0.0284-0.0838 (  4599 PWs)   bands (ev):

   -41.2687 -39.1146 -39.0813 -39.0592 -39.0445 -39.0293 -39.0107 -39.0099
   -17.5541 -17.5471 -17.5056 -15.5626 -15.5449 -15.5189 -15.4479 -15.3864
   -15.3349 -15.2499 -15.1006 -15.0981 -15.0588 -15.0436 -14.9989 -14.9557
   -14.9274 -14.9109 -14.9092 -14.8946 -14.8759 -14.8595 -14.8508 -14.7962
    11.4623  12.2417  12.3077  12.5657  12.6835  12.6848  12.8955  13.0506
    13.9634  14.0076  14.0870  14.3394  14.4613  14.5691  14.5861  14.9649
    15.3924  15.4340  15.5314  15.8898  16.0011  16.0417  16.1146  16.2383
    16.4292  16.4521  16.9004  17.0596  17.0640  17.5328

          k =-0.0493-0.0284 0.1006 (  4594 PWs)   bands (ev):

   -41.2687 -39.1049 -39.0907 -39.0566 -39.0432 -39.0319 -39.0112 -39.0111
   -17.5544 -17.5473 -17.5053 -15.5648 -15.5497 -15.5238 -15.4442 -15.3969
   -15.3417 -15.1971 -15.1509 -15.0740 -15.0683 -15.0426 -14.9950 -14.9341
   -14.9261 -14.9038 -14.9027 -14.8902 -14.8846 -14.8678 -14.8667 -14.8000
    11.8620  11.8907  12.4509  12.4654  12.7103  12.7201  12.7537  12.9324
    14.1083  14.2029  14.2093  14.2825  14.2868  14.3795  14.6549  14.8208
    15.5762  15.6507  15.6605  15.8038  15.8447  15.8774  16.2614  16.2873
    16.3032  16.3404  17.2349  17.2412  17.2590  17.2732

          k =-0.0657-0.0379 0.0000 (  4610 PWs)   bands (ev):

   -41.2690 -39.1436 -39.0969 -39.0568 -39.0347 -39.0166 -39.0025 -38.9977
   -17.5489 -17.5399 -17.5090 -15.4963 -15.4626 -15.4069 -15.3656 -15.3540
   -15.3030 -15.2247 -15.1933 -15.1892 -15.1331 -15.1233 -15.0565 -15.0371
   -14.9881 -14.9796 -14.9543 -14.9036 -14.8404 -14.8277 -14.7694 -14.7495
    10.7229  11.7448  12.9278  13.0873  13.1328  13.1786  13.3149  13.3516
    13.4584  13.5394  13.8415  14.3420  14.3640  14.6655  14.8085  14.8908
    15.2575  15.3493  15.7229  15.8878  15.9201  15.9387  16.1663  16.2720
    16.3445  16.3512  16.6076  16.6489  16.9186  16.9200

          k =-0.0657-0.0379-0.0168 (  4617 PWs)   bands (ev):

   -41.2690 -39.1417 -39.0956 -39.0561 -39.0359 -39.0179 -39.0032 -38.9984
   -17.5492 -17.5401 -17.5088 -15.4926 -15.4653 -15.4182 -15.3926 -15.3457
   -15.2779 -15.2299 -15.2015 -15.1836 -15.1243 -15.1221 -15.0483 -15.0320
   -14.9913 -14.9864 -14.9531 -14.8955 -14.8409 -14.8278 -14.7721 -14.7564
    10.7704  11.7628  12.9408  12.9938  13.0811  13.1853  13.4218  13.4243
    13.4735  13.5663  13.8296  14.3102  14.3549  14.6660  14.7320  14.8922
    15.3176  15.3689  15.6595  15.8312  15.8914  15.8991  16.1917  16.2999
    16.3537  16.3642  16.5006  16.5554  17.0057  17.1132

          k =-0.0657-0.0379-0.0335 (  4612 PWs)   bands (ev):

   -41.2689 -39.1362 -39.0918 -39.0541 -39.0397 -39.0216 -39.0052 -39.0004
   -17.5499 -17.5406 -17.5081 -15.4920 -15.4622 -15.4440 -15.4235 -15.3438
   -15.2449 -15.2393 -15.2061 -15.1861 -15.1129 -15.0904 -15.0456 -15.0194
   -14.9985 -14.9916 -14.9468 -14.8795 -14.8421 -14.8307 -14.7800 -14.7761
    10.9108  11.8189  12.8709  12.9722  12.9941  13.2197  13.4821  13.5260
    13.5459  13.6595  13.7893  14.2990  14.3736  14.5442  14.6785  14.9162
    15.3799  15.4027  15.5350  15.6913  15.7788  15.8156  16.2722  16.2839
    16.3441  16.3858  16.4439  16.4915  17.1061  17.4140

          k =-0.0657-0.0379-0.0503 (  4608 PWs)   bands (ev):

   -41.2688 -39.1276 -39.0859 -39.0510 -39.0466 -39.0272 -39.0076 -39.0034
   -17.5509 -17.5414 -17.5071 -15.5038 -15.4720 -15.4512 -15.4399 -15.3389
   -15.2623 -15.2592 -15.1816 -15.1637 -15.0964 -15.0586 -15.0469 -15.0366
   -14.9949 -14.9622 -14.9348 -14.8674 -14.8435 -14.8419 -14.8053 -14.7919
    11.1372  11.9179  12.7986  12.9070  13.0062  13.1738  13.4023  13.5125
    13.6794  13.7808  13.8135  14.2798  14.4936  14.5031  14.6962  14.9676
    15.2829  15.2951  15.4244  15.5802  15.6793  15.7247  16.1603  16.3220
    16.3913  16.4348  16.4994  16.5059  17.0383  17.6388

          k =-0.0657-0.0379-0.0670 (  4599 PWs)   bands (ev):

   -41.2687 -39.1165 -39.0786 -39.0563 -39.0475 -39.0343 -39.0095 -39.0069
   -17.5519 -17.5421 -17.5061 -15.5166 -15.4946 -15.4685 -15.4160 -15.3348
   -15.2838 -15.2790 -15.1644 -15.1277 -15.1028 -15.0633 -15.0468 -15.0188
   -14.9593 -14.9334 -14.9183 -14.8670 -14.8643 -14.8470 -14.8381 -14.8058
    11.4376  12.0637  12.7666  12.8895  12.8918  13.0082  13.2390  13.4107
    13.8445  13.8882  14.0071  14.2271  14.6143  14.7222  14.7370  14.9581
    15.0738  15.1143  15.3174  15.5542  15.6041  15.6924  16.0037  16.2146
    16.4361  16.5742  16.6010  16.6395  16.8981  17.6709

          k =-0.0657-0.0379-0.0838 (  4593 PWs)   bands (ev):

   -41.2687 -39.1046 -39.0732 -39.0651 -39.0445 -39.0417 -39.0107 -39.0099
   -17.5525 -17.5427 -17.5053 -15.5266 -15.5089 -15.4771 -15.3937 -15.3501
   -15.3023 -15.2620 -15.1580 -15.1404 -15.0892 -15.0854 -15.0276 -14.9771
   -14.9174 -14.9166 -14.9005 -14.8994 -14.8710 -14.8688 -14.8576 -14.8185
    11.7936  12.2522  12.5681  12.7558  12.8471  12.9182  13.0678  13.2884
    14.0361  14.0972  14.2348  14.3157  14.5167  14.6331  14.7857  14.7984
    15.0428  15.1801  15.3682  15.4936  15.5937  15.6627  15.8263  16.0479
    16.5027  16.7218  16.7511  16.7603  16.8705  17.3116

          k =-0.0657-0.0379 0.1006 (  4598 PWs)   bands (ev):

   -41.2686 -39.0974 -39.0768 -39.0642 -39.0459 -39.0433 -39.0112 -39.0111
   -17.5528 -17.5429 -17.5050 -15.5304 -15.5137 -15.4792 -15.3746 -15.3707
   -15.3090 -15.2373 -15.1888 -15.1181 -15.1074 -15.0829 -15.0113 -14.9429
   -14.9346 -14.9023 -14.8947 -14.8927 -14.8827 -14.8761 -14.8739 -14.8243
    12.1692  12.1791  12.4919  12.5284  12.9165  12.9395  12.9440  13.2267
    14.2194  14.2780  14.3580  14.3659  14.4275  14.5173  14.5879  14.6517
    15.2400  15.3575  15.3656  15.4184  15.4957  15.6878  15.8167  15.8945
    16.6004  16.6159  16.9783  16.9808  16.9829  16.9967

          k = 0.0821 0.0474 0.0000 (  4592 PWs)   bands (ev):

   -41.2690 -39.1352 -39.1058 -39.0568 -39.0312 -39.0191 -39.0030 -38.9976
   -17.5482 -17.5382 -17.5089 -15.4790 -15.4405 -15.3898 -15.3759 -15.3659
   -15.2262 -15.2250 -15.1915 -15.1840 -15.1308 -15.1198 -15.0906 -15.0565
   -15.0357 -15.0078 -14.9584 -14.9032 -14.8387 -14.8177 -14.7741 -14.7551
    11.1980  11.2755  13.0335  13.1696  13.1777  13.2659  13.3449  13.4497
    13.7682  13.7894  13.9851  14.1070  14.1829  14.3970  14.5861  14.8211
    15.1966  15.3013  15.6241  15.8001  15.9434  15.9576  16.3108  16.3186
    16.3311  16.4129  16.4363  16.4830  17.3307  17.3881

          k = 0.0821 0.0474-0.0168 (  4600 PWs)   bands (ev):

   -41.2689 -39.1334 -39.1044 -39.0561 -39.0320 -39.0209 -39.0037 -38.9983
   -17.5486 -17.5384 -17.5087 -15.4739 -15.4441 -15.4054 -15.4009 -15.3415
   -15.2349 -15.2158 -15.1883 -15.1638 -15.1345 -15.1269 -15.1009 -15.0421
   -15.0356 -15.0098 -14.9555 -14.8958 -14.8389 -14.8184 -14.7771 -14.7617
    11.2373  11.3098  13.0559  13.1451  13.1839  13.2252  13.3676  13.4728
    13.7662  13.8031  14.0141  14.1335  14.1399  14.3568  14.6100  14.8307
    15.2521  15.3314  15.5708  15.7296  15.8833  15.8925  16.3007  16.3180
    16.3323  16.3977  16.4460  16.4497  17.4070  17.4132

          k = 0.0821 0.0474-0.0335 (  4600 PWs)   bands (ev):

   -41.2689 -39.1281 -39.1003 -39.0541 -39.0344 -39.0263 -39.0055 -39.0004
   -17.5493 -17.5389 -17.5079 -15.4606 -15.4570 -15.4300 -15.4269 -15.3286
   -15.2417 -15.1909 -15.1754 -15.1726 -15.1354 -15.1205 -15.1029 -15.0527
   -15.0127 -15.0004 -14.9469 -14.8806 -14.8389 -14.8225 -14.7860 -14.7809
    11.3535  11.4118  13.0976  13.1120  13.1599  13.1829  13.3864  13.4853
    13.7572  13.8962  13.9631  14.1261  14.2245  14.2992  14.6674  14.8664
    15.3712  15.3923  15.4301  15.5626  15.6893  15.7480  16.2561  16.3119
    16.3238  16.3754  16.4069  16.4779  17.4548  17.5503

          k = 0.0821 0.0474-0.0503 (  4598 PWs)   bands (ev):

   -41.2688 -39.1199 -39.0937 -39.0510 -39.0389 -39.0347 -39.0077 -39.0034
   -17.5503 -17.5397 -17.5069 -15.4794 -15.4553 -15.4527 -15.4270 -15.3261
   -15.2501 -15.1918 -15.1861 -15.1689 -15.1241 -15.1150 -15.0758 -15.0610
   -14.9988 -14.9635 -14.9333 -14.8686 -14.8382 -14.8352 -14.8104 -14.8000
    11.5411  11.5783  13.0528  13.1012  13.1353  13.1548  13.3777  13.3893
    13.8375  13.8874  14.0252  14.0326  14.3912  14.4496  14.7358  14.9073
    15.2566  15.3526  15.3836  15.4687  15.4739  15.5649  16.1516  16.2266
    16.3262  16.3869  16.4554  16.5380  17.4087  17.4812

          k = 0.0821 0.0474-0.0670 (  4588 PWs)   bands (ev):

   -41.2687 -39.1095 -39.0853 -39.0475 -39.0457 -39.0452 -39.0096 -39.0069
   -17.5512 -17.5404 -17.5059 -15.4997 -15.4784 -15.4581 -15.3974 -15.3259
   -15.2690 -15.2222 -15.1868 -15.1782 -15.1036 -15.0856 -15.0832 -15.0357
   -14.9574 -14.9339 -14.9160 -14.8639 -14.8634 -14.8433 -14.8397 -14.8177
    11.7901  11.8050  12.9943  13.0374  13.0577  13.0591  13.1739  13.3840
    13.9230  13.9698  14.0745  14.1800  14.6146  14.6638  14.7630  14.8304
    15.0914  15.1360  15.2601  15.3858  15.4114  15.5276  15.9790  16.0816
    16.3989  16.4413  16.5708  16.6319  17.2669  17.3031

          k = 0.0821 0.0474-0.0838 (  4586 PWs)   bands (ev):

   -41.2686 -39.0990 -39.0757 -39.0559 -39.0542 -39.0445 -39.0108 -39.0099
   -17.5519 -17.5409 -17.5052 -15.5138 -15.4929 -15.4601 -15.3629 -15.3267
   -15.2863 -15.2552 -15.2086 -15.1575 -15.1047 -15.1024 -15.0439 -14.9851
   -14.9215 -14.9131 -14.8990 -14.8974 -14.8766 -14.8645 -14.8485 -14.8363
    12.0741  12.0934  12.7301  12.7840  13.0110  13.0360  13.0758  13.3764
    14.0776  14.1523  14.2525  14.3557  14.5791  14.6641  14.7261  14.8438
    14.8931  15.0589  15.2971  15.3471  15.3834  15.5009  15.7714  15.8997
    16.5679  16.5947  16.7199  16.7600  17.0905  17.1006

          k = 0.0821 0.0474 0.1006 (  4580 PWs)   bands (ev):

   -41.2686 -39.0934 -39.0683 -39.0615 -39.0613 -39.0433 -39.0112 -39.0111
   -17.5521 -17.5412 -17.5049 -15.5189 -15.4978 -15.4601 -15.3399 -15.3306
   -15.2928 -15.2732 -15.2185 -15.1366 -15.1258 -15.1030 -15.0162 -14.9469
   -14.9426 -14.9100 -14.8956 -14.8866 -14.8792 -14.8785 -14.8562 -14.8468
    12.3345  12.3557  12.4554  12.5204  13.0062  13.0291  13.0487  13.3727
    14.2926  14.2994  14.3437  14.3913  14.4844  14.5495  14.5778  14.7217
    15.0308  15.1700  15.2304  15.2541  15.5154  15.5476  15.5923  15.7825
    16.8400  16.8595  16.8626  16.8709  16.8913  16.9209

          k =-0.0164-0.0284 0.0000 (  4607 PWs)   bands (ev):

   -41.2691 -39.1712 -39.0651 -39.0574 -39.0471 -39.0102 -38.9989 -38.9980
   -17.5526 -17.5502 -17.5096 -15.5688 -15.5581 -15.4873 -15.4740 -15.4135
   -15.2876 -15.2628 -15.2564 -15.2224 -15.0795 -15.0557 -14.9977 -14.9728
   -14.9068 -14.8982 -14.8829 -14.8617 -14.8535 -14.7874 -14.7453 -14.7287
     9.8443  12.3263  12.4833  12.5936  12.6931  12.8017  12.9046  12.9455
    13.0523  13.1514  13.2080  15.0297  15.0566  15.2035  15.4539  15.5778
    15.6453  15.6673  15.8319  15.9185  16.0336  16.1097  16.1746  16.1931
    16.2900  16.3622  16.3930  16.5138  16.6861  16.9963

          k =-0.0164-0.0284-0.0168 (  4607 PWs)   bands (ev):

   -41.2691 -39.1691 -39.0643 -39.0568 -39.0488 -39.0106 -38.9997 -38.9986
   -17.5529 -17.5505 -17.5093 -15.5829 -15.5358 -15.4983 -15.4865 -15.4195
   -15.2978 -15.2746 -15.2338 -15.2040 -15.0741 -15.0452 -14.9962 -14.9712
   -14.9102 -14.8929 -14.8817 -14.8615 -14.8553 -14.7943 -14.7472 -14.7372
     9.9018  12.3276  12.4194  12.5145  12.6155  12.7459  12.8688  12.8944
    13.1853  13.3960  13.4126  14.8078  14.8305  14.8921  15.4507  15.5896
    15.7374  15.8203  15.9267  16.0528  16.0812  16.1140  16.1250  16.2010
    16.3158  16.3734  16.4272  16.5265  16.6415  17.1216

          k =-0.0164-0.0284-0.0335 (  4613 PWs)   bands (ev):

   -41.2690 -39.1629 -39.0618 -39.0569 -39.0525 -39.0114 -39.0022 -39.0005
   -17.5537 -17.5512 -17.5086 -15.5943 -15.5254 -15.5174 -15.5022 -15.4244
   -15.3215 -15.2985 -15.1837 -15.1646 -15.0578 -15.0200 -14.9913 -14.9661
   -14.9174 -14.8850 -14.8811 -14.8605 -14.8594 -14.8194 -14.7568 -14.7514
    10.0712  12.2582  12.3336  12.3912  12.4837  12.7491  12.8446  12.8951
    13.5225  13.6928  13.7646  14.4175  14.4585  14.5152  15.4584  15.5428
    15.6389  15.8154  15.8739  15.9474  16.0113  16.3090  16.3565  16.3957
    16.4812  16.5259  16.5401  16.5608  16.6133  17.3915

          k =-0.0164-0.0284-0.0503 (  4617 PWs)   bands (ev):

   -41.2690 -39.1530 -39.0649 -39.0580 -39.0508 -39.0126 -39.0060 -39.0032
   -17.5548 -17.5522 -17.5077 -15.6025 -15.5530 -15.5427 -15.4988 -15.3932
   -15.3504 -15.3272 -15.1241 -15.1204 -15.0304 -14.9926 -14.9821 -14.9579
   -14.9292 -14.8907 -14.8849 -14.8671 -14.8606 -14.8549 -14.7740 -14.7592
    10.3426  12.1543  12.2750  12.3205  12.3878  12.7387  12.8580  12.9336
    13.7672  13.8789  14.0338  14.0939  14.2600  14.3219  15.2713  15.4649
    15.5390  15.6459  15.9026  15.9525  15.9768  16.3094  16.3965  16.4569
    16.4639  16.7247  16.8096  16.8811  16.9044  17.6999

          k =-0.0164-0.0284-0.0670 (  4621 PWs)   bands (ev):

   -41.2689 -39.1402 -39.0773 -39.0536 -39.0475 -39.0138 -39.0104 -39.0061
   -17.5558 -17.5532 -17.5067 -15.6099 -15.5761 -15.5643 -15.5067 -15.3777
   -15.3536 -15.3272 -15.0820 -15.0631 -14.9997 -14.9802 -14.9736 -14.9596
   -14.9377 -14.9278 -14.8981 -14.8787 -14.8646 -14.8563 -14.7887 -14.7673
    10.6981  12.1183  12.1853  12.2737  12.3630  12.6588  12.8057  12.8973
    13.8063  13.8621  13.8932  14.1944  14.3246  14.3572  15.0131  15.3452
    15.5735  15.6152  15.9233  16.0212  16.0834  16.1620  16.2646  16.6754
    16.7103  16.8955  17.0028  17.0712  17.1226  17.9783

          k =-0.0164-0.0284-0.0838 (  4616 PWs)   bands (ev):

   -41.2688 -39.1254 -39.0918 -39.0497 -39.0445 -39.0152 -39.0143 -39.0081
   -17.5566 -17.5539 -17.5061 -15.6156 -15.5910 -15.5788 -15.5113 -15.3969
   -15.3721 -15.2454 -15.0542 -15.0475 -15.0109 -14.9949 -14.9587 -14.9447
   -14.9360 -14.9312 -14.9113 -14.8878 -14.8703 -14.8581 -14.8003 -14.7740
    11.1087  11.9061  12.1929  12.3327  12.4215  12.5041  12.6543  12.7477
    13.8884  13.9013  13.9468  14.1993  14.2495  14.3053  14.8932  15.1655
    15.6496  15.8762  15.9348  16.0058  16.1243  16.3052  16.3452  16.7137
    16.8940  16.9713  17.0893  17.1346  17.3489  17.7662

          k =-0.0164-0.0284 0.1006 (  4604 PWs)   bands (ev):

   -41.2688 -39.1132 -39.1040 -39.0481 -39.0432 -39.0160 -39.0159 -39.0088
   -17.5569 -17.5541 -17.5057 -15.6178 -15.5961 -15.5839 -15.5124 -15.4039
   -15.3787 -15.1754 -15.1246 -15.0178 -15.0172 -14.9769 -14.9644 -14.9437
   -14.9294 -14.9184 -14.9153 -14.9000 -14.8731 -14.8594 -14.8051 -14.7767
    11.5037  11.5613  12.3153  12.3228  12.4592  12.4974  12.5263  12.6013
    13.9488  14.0466  14.0958  14.1020  14.1408  14.1634  14.8805  15.0774
    15.7200  15.8662  15.9739  16.0602  16.2626  16.3748  16.5582  16.6958
    16.7142  16.7772  17.3882  17.4052  17.4204  17.4772

          k =-0.0328-0.0379 0.0000 (  4619 PWs)   bands (ev):

   -41.2691 -39.1616 -39.0758 -39.0587 -39.0420 -39.0117 -39.0005 -38.9980
   -17.5508 -17.5460 -17.5093 -15.5365 -15.5277 -15.4519 -15.4226 -15.3784
   -15.2944 -15.2805 -15.2287 -15.2246 -15.1069 -15.0551 -15.0291 -14.9782
   -14.9552 -14.9066 -14.8952 -14.8625 -14.8585 -14.8397 -14.7580 -14.7360
    10.1320  12.3626  12.5682  12.6642  12.8859  12.9938  13.0206  13.0744
    13.2455  13.2509  13.3819  14.8108  14.8389  14.9475  15.1788  15.4138
    15.5552  15.6272  15.7067  15.8986  15.9794  16.0847  16.1574  16.1857
    16.2523  16.3767  16.4386  16.5399  16.7569  16.9338

          k =-0.0328-0.0379-0.0168 (  4617 PWs)   bands (ev):

   -41.2690 -39.1596 -39.0747 -39.0581 -39.0435 -39.0123 -39.0014 -38.9986
   -17.5510 -17.5462 -17.5091 -15.5465 -15.5119 -15.4630 -15.4390 -15.3843
   -15.2910 -15.2694 -15.2390 -15.2085 -15.0980 -15.0459 -15.0253 -14.9761
   -14.9580 -14.9084 -14.8909 -14.8664 -14.8573 -14.8431 -14.7603 -14.7433
    10.1870  12.3284  12.5513  12.6112  12.7922  12.9604  13.0351  13.1028
    13.2915  13.4686  13.5064  14.6833  14.6996  14.7755  15.1822  15.3842
    15.5291  15.6447  15.8141  15.9332  16.0385  16.0992  16.1557  16.2421
    16.2566  16.3335  16.3554  16.5645  16.8059  17.0328

          k =-0.0328-0.0379-0.0335 (  4612 PWs)   bands (ev):

   -41.2690 -39.1536 -39.0718 -39.0569 -39.0479 -39.0138 -39.0043 -39.0002
   -17.5518 -17.5469 -17.5083 -15.5561 -15.4968 -15.4851 -15.4646 -15.3902
   -15.3147 -15.2690 -15.2081 -15.1809 -15.0712 -15.0296 -15.0104 -14.9721
   -14.9622 -14.9136 -14.8898 -14.8727 -14.8602 -14.8473 -14.7683 -14.7607
    10.3491  12.2594  12.4489  12.5930  12.6656  12.9609  13.0398  13.1479
    13.5283  13.6735  13.8158  14.3737  14.4735  14.5617  15.1518  15.2157
    15.4082  15.6742  15.8348  15.9547  16.1311  16.1502  16.2125  16.2491
    16.3093  16.3937  16.4175  16.6543  16.7352  17.3247

          k =-0.0328-0.0379-0.0503 (  4612 PWs)   bands (ev):

   -41.2689 -39.1441 -39.0675 -39.0598 -39.0503 -39.0161 -39.0085 -39.0025
   -17.5528 -17.5477 -17.5074 -15.5648 -15.5199 -15.4999 -15.4695 -15.3709
   -15.3440 -15.2973 -15.1553 -15.1422 -15.0335 -15.0158 -14.9939 -14.9755
   -14.9536 -14.9253 -14.9086 -14.8788 -14.8581 -14.8518 -14.7897 -14.7725
    10.6096  12.2136  12.3738  12.5417  12.6025  12.9350  13.0431  13.2000
    13.6846  13.8019  14.0001  14.2316  14.4050  14.4721  14.8762  15.2472
    15.2849  15.5412  15.6856  15.9072  16.1364  16.2418  16.3072  16.3332
    16.3790  16.5590  16.5927  16.6244  16.8243  17.6294

          k =-0.0328-0.0379-0.0670 (  4600 PWs)   bands (ev):

   -41.2688 -39.1319 -39.0714 -39.0611 -39.0477 -39.0193 -39.0130 -39.0047
   -17.5538 -17.5486 -17.5064 -15.5725 -15.5432 -15.5197 -15.4698 -15.3748
   -15.3251 -15.3166 -15.1236 -15.0835 -15.0295 -15.0077 -14.9861 -14.9697
   -14.9462 -14.9359 -14.9124 -14.8878 -14.8612 -14.8567 -14.8141 -14.7821
    10.9526  12.2253  12.3604  12.4405  12.5644  12.8282  12.9570  13.1519
    13.7810  13.8623  13.9258  14.3582  14.4666  14.5554  14.6957  15.1523
    15.2879  15.3854  15.6806  15.9538  16.0784  16.1428  16.3496  16.4066
    16.4671  16.5247  16.7225  16.8250  17.0403  17.9005

          k =-0.0328-0.0379-0.0838 (  4605 PWs)   bands (ev):

   -41.2687 -39.1179 -39.0846 -39.0562 -39.0446 -39.0232 -39.0166 -39.0063
   -17.5545 -17.5493 -17.5057 -15.5773 -15.5586 -15.5336 -15.4692 -15.3961
   -15.3443 -15.2478 -15.0936 -15.0846 -15.0373 -15.0254 -14.9776 -14.9470
   -14.9361 -14.9245 -14.9088 -14.8924 -14.8732 -14.8618 -14.8368 -14.7901
    11.3528  12.1508  12.3081  12.4436  12.6131  12.6589  12.7829  12.9806
    13.9426  13.9702  14.0453  14.3116  14.3759  14.4931  14.6688  15.0265
    15.4081  15.5083  15.8401  15.9261  16.1094  16.1439  16.1958  16.3304
    16.3700  16.5306  16.9614  17.0537  17.2652  17.6234

          k =-0.0328-0.0379 0.1006 (  4596 PWs)   bands (ev):

   -41.2687 -39.1075 -39.0950 -39.0540 -39.0432 -39.0251 -39.0180 -39.0068
   -17.5548 -17.5495 -17.5054 -15.5788 -15.5641 -15.5385 -15.4684 -15.4042
   -15.3513 -15.1888 -15.1424 -15.0703 -15.0531 -15.0022 -14.9828 -14.9411
   -14.9341 -14.9087 -14.9051 -14.8883 -14.8853 -14.8650 -14.8497 -14.7933
    11.7536  11.7907  12.4437  12.4504  12.5742  12.6165  12.7192  12.8423
    14.0714  14.1335  14.1859  14.2308  14.2410  14.3040  14.7203  14.8929
    15.6088  15.6905  15.8385  15.8835  16.0709  16.1656  16.2039  16.2647
    16.3484  16.4005  17.2708  17.2828  17.3093  17.3454

          k =-0.0493-0.0474 0.0000 (  4617 PWs)   bands (ev):

   -41.2690 -39.1488 -39.0899 -39.0597 -39.0356 -39.0142 -39.0025 -38.9979
   -17.5489 -17.5417 -17.5091 -15.5073 -15.4799 -15.4100 -15.3598 -15.3424
   -15.3381 -15.2473 -15.2267 -15.1869 -15.1438 -15.0723 -15.0540 -15.0243
   -14.9830 -14.9549 -14.9133 -14.9065 -14.8488 -14.8334 -14.7722 -14.7461
    10.5371  12.0237  12.7836  12.8618  13.0793  13.1083  13.2718  13.3498
    13.3725  13.4797  13.6610  14.4980  14.5714  14.6997  14.9146  15.0277
    15.3354  15.4383  15.7255  15.8334  15.9390  15.9741  16.1035  16.1624
    16.2914  16.5228  16.5443  16.6962  16.7663  16.9069

          k =-0.0493-0.0474-0.0168 (  4605 PWs)   bands (ev):

   -41.2690 -39.1469 -39.0886 -39.0590 -39.0370 -39.0152 -39.0035 -38.9985
   -17.5491 -17.5418 -17.5088 -15.5061 -15.4790 -15.4223 -15.3898 -15.3518
   -15.2934 -15.2561 -15.2245 -15.1900 -15.1299 -15.0725 -15.0420 -15.0237
   -14.9827 -14.9585 -14.9215 -14.8960 -14.8503 -14.8328 -14.7750 -14.7525
    10.5875  12.0274  12.7316  12.8741  12.9870  13.1562  13.3054  13.3867
    13.4193  13.5650  13.6847  14.4669  14.4880  14.6719  14.9105  14.9419
    15.3642  15.4586  15.7047  15.7871  15.9251  16.0559  16.0790  16.1883
    16.2967  16.3751  16.5586  16.6276  16.8608  17.0894

          k =-0.0493-0.0474-0.0335 (  4605 PWs)   bands (ev):

   -41.2689 -39.1412 -39.0851 -39.0572 -39.0412 -39.0179 -39.0062 -39.0000
   -17.5498 -17.5424 -17.5081 -15.5097 -15.4707 -15.4489 -15.4226 -15.3542
   -15.2847 -15.2436 -15.2199 -15.1908 -15.0922 -15.0649 -15.0380 -15.0070
   -14.9847 -14.9623 -14.9326 -14.8816 -14.8530 -14.8342 -14.7837 -14.7693
    10.7364  12.0460  12.6427  12.8635  12.9242  13.1857  13.3345  13.4644
    13.5309  13.6800  13.7902  14.3200  14.4512  14.6294  14.7101  14.9522
    15.3223  15.4868  15.6207  15.7803  15.8397  16.0035  16.1758  16.2309
    16.2917  16.3456  16.4747  16.6289  16.9591  17.3422

          k =-0.0493-0.0474-0.0503 (  4604 PWs)   bands (ev):

   -41.2688 -39.1323 -39.0796 -39.0557 -39.0471 -39.0223 -39.0102 -39.0019
   -17.5507 -17.5433 -17.5071 -15.5196 -15.4812 -15.4545 -15.4446 -15.3484
   -15.3088 -15.2607 -15.1924 -15.1535 -15.0672 -15.0485 -15.0327 -15.0059
   -14.9727 -14.9615 -14.9316 -14.8761 -14.8533 -14.8430 -14.8025 -14.7872
    10.9763  12.0955  12.5857  12.8064  12.9149  13.1384  13.3008  13.5253
    13.6405  13.7559  13.8630  14.3410  14.4690  14.5335  14.6369  15.0200
    15.1655  15.3990  15.5000  15.6666  15.8490  15.9274  16.1470  16.3052
    16.3515  16.4026  16.4660  16.7258  16.8862  17.6126

          k =-0.0493-0.0474-0.0670 (  4600 PWs)   bands (ev):

   -41.2687 -39.1209 -39.0733 -39.0614 -39.0477 -39.0281 -39.0144 -39.0037
   -17.5518 -17.5441 -17.5061 -15.5289 -15.5041 -15.4730 -15.4300 -15.3558
   -15.3041 -15.2864 -15.1673 -15.1014 -15.0913 -15.0493 -15.0107 -14.9951
   -14.9586 -14.9420 -14.9165 -14.8839 -14.8619 -14.8524 -14.8299 -14.8007
    11.2940  12.1894  12.5831  12.7472  12.8336  12.9875  13.1582  13.4370
    13.7981  13.8717  13.9576  14.3382  14.5485  14.6559  14.6945  14.9401
    15.0533  15.2514  15.4024  15.6543  15.8141  15.8668  16.0108  16.2354
    16.3666  16.5971  16.6320  16.7544  16.8552  17.7560

          k =-0.0493-0.0474-0.0838 (  4599 PWs)   bands (ev):

   -41.2687 -39.1083 -39.0751 -39.0643 -39.0448 -39.0343 -39.0179 -39.0049
   -17.5525 -17.5447 -17.5054 -15.5347 -15.5196 -15.4849 -15.4162 -15.3789
   -15.3100 -15.2592 -15.1437 -15.1345 -15.0763 -15.0495 -15.0054 -14.9674
   -14.9305 -14.9179 -14.9096 -14.8940 -14.8773 -14.8628 -14.8578 -14.8114
    11.6692  12.3257  12.4676  12.6502  12.7671  12.8670  12.9858  13.2541
    14.0086  14.0572  14.1651  14.3681  14.4890  14.5600  14.6926  14.8655
    15.0439  15.3414  15.4571  15.6706  15.7361  15.7766  15.8561  16.1026
    16.4135  16.6162  16.8028  16.8905  16.9992  17.4076

          k =-0.0493-0.0474 0.1006 (  4600 PWs)   bands (ev):

   -41.2687 -39.1001 -39.0825 -39.0616 -39.0432 -39.0377 -39.0194 -39.0053
   -17.5527 -17.5449 -17.5051 -15.5365 -15.5252 -15.4883 -15.4071 -15.3926
   -15.3174 -15.2219 -15.1775 -15.1211 -15.0889 -15.0360 -15.0018 -14.9440
   -14.9382 -14.9023 -14.8933 -14.8917 -14.8894 -14.8798 -14.8715 -14.8159
    12.0633  12.0774  12.5192  12.5526  12.7569  12.8011  12.9626  13.1438
    14.1891  14.2619  14.2851  14.3364  14.3694  14.4739  14.5616  14.7158
    15.3259  15.4436  15.4901  15.5490  15.6455  15.7345  15.9267  15.9459
    16.4843  16.5150  17.0613  17.0734  17.1698  17.1782

          k =-0.0657-0.0569 0.0000 (  4602 PWs)   bands (ev):

   -41.2690 -39.1361 -39.1034 -39.0602 -39.0299 -39.0176 -39.0037 -38.9979
   -17.5476 -17.5389 -17.5090 -15.4795 -15.4427 -15.3787 -15.3742 -15.3523
   -15.2609 -15.2279 -15.2041 -15.1791 -15.1498 -15.1127 -15.0708 -15.0532
   -15.0456 -14.9768 -14.9521 -14.9065 -14.8460 -14.8155 -14.7824 -14.7557
    11.0242  11.5492  12.8835  13.0633  13.1330  13.2847  13.4206  13.5184
    13.6738  13.7636  14.0267  14.1251  14.2268  14.5358  14.5548  14.7628
    15.2225  15.3511  15.6565  15.7438  15.8215  16.0546  16.0953  16.1715
    16.2846  16.5072  16.5485  16.7095  17.0509  17.2410

          k =-0.0657-0.0569-0.0168 (  4609 PWs)   bands (ev):

   -41.2689 -39.1343 -39.1020 -39.0595 -39.0308 -39.0192 -39.0047 -38.9984
   -17.5479 -17.5392 -17.5087 -15.4748 -15.4473 -15.3987 -15.3878 -15.3351
   -15.2571 -15.2357 -15.1954 -15.1671 -15.1471 -15.1170 -15.0767 -15.0536
   -15.0337 -14.9775 -14.9525 -14.8990 -14.8464 -14.8161 -14.7861 -14.7612
    11.0668  11.5774  12.8689  13.0839  13.1199  13.3027  13.4027  13.5647
    13.6967  13.7736  13.9832  14.1493  14.2198  14.4713  14.5787  14.7728
    15.2678  15.3703  15.5874  15.7027  15.7620  16.0639  16.0835  16.1738
    16.2686  16.4724  16.5487  16.6347  17.1330  17.3202

          k =-0.0657-0.0569-0.0335 (  4604 PWs)   bands (ev):

   -41.2689 -39.1290 -39.0979 -39.0575 -39.0339 -39.0238 -39.0072 -38.9998
   -17.5486 -17.5397 -17.5080 -15.4671 -15.4550 -15.4240 -15.4125 -15.3282
   -15.2521 -15.2304 -15.1978 -15.1584 -15.1305 -15.1039 -15.0818 -15.0669
   -15.0018 -14.9800 -14.9484 -14.8845 -14.8466 -14.8204 -14.7972 -14.7764
    11.1928  11.6617  12.8385  13.0847  13.1442  13.3108  13.3967  13.6364
    13.7198  13.8208  13.8909  14.1751  14.2707  14.3518  14.6301  14.8099
    15.3340  15.4038  15.4506  15.5573  15.6467  15.9201  16.1087  16.2076
    16.2638  16.4072  16.5207  16.5696  17.2354  17.5110

          k =-0.0657-0.0569-0.0503 (  4600 PWs)   bands (ev):

   -41.2688 -39.1207 -39.0915 -39.0546 -39.0397 -39.0305 -39.0109 -39.0016
   -17.5495 -17.5405 -17.5069 -15.4813 -15.4546 -15.4367 -15.4276 -15.3300
   -15.2628 -15.2301 -15.1991 -15.1383 -15.1311 -15.0949 -15.0763 -15.0459
   -14.9874 -14.9626 -14.9350 -14.8754 -14.8459 -14.8345 -14.8152 -14.7968
    11.3963  11.8012  12.8168  13.0559  13.1748  13.2566  13.3477  13.5942
    13.7985  13.8221  13.9608  14.0931  14.3710  14.4507  14.6956  14.8644
    15.2170  15.3135  15.3795  15.4726  15.5303  15.7052  16.0939  16.1735
    16.2519  16.4359  16.5210  16.5804  17.2221  17.5973

          k =-0.0657-0.0569-0.0670 (  4602 PWs)   bands (ev):

   -41.2687 -39.1102 -39.0834 -39.0533 -39.0465 -39.0382 -39.0150 -39.0032
   -17.5505 -17.5412 -17.5060 -15.4966 -15.4752 -15.4487 -15.4018 -15.3328
   -15.2834 -15.2434 -15.1930 -15.1597 -15.1109 -15.0843 -15.0521 -15.0216
   -14.9628 -14.9361 -14.9153 -14.8766 -14.8643 -14.8457 -14.8374 -14.8170
    11.6671  11.9931  12.8201  13.0016  13.0706  13.0956  13.2350  13.5065
    13.8905  13.9482  14.0880  14.1402  14.5443  14.6258  14.7154  14.8534
    15.0248  15.1998  15.2648  15.3937  15.4885  15.5393  15.9340  16.0481
    16.3431  16.5430  16.6173  16.6463  17.1029  17.4723

          k =-0.0657-0.0569-0.0838 (  4588 PWs)   bands (ev):

   -41.2686 -39.0994 -39.0747 -39.0609 -39.0485 -39.0436 -39.0186 -39.0042
   -17.5512 -17.5418 -17.5052 -15.5075 -15.4902 -15.4531 -15.3744 -15.3394
   -15.2929 -15.2619 -15.1999 -15.1696 -15.1116 -15.0622 -15.0350 -14.9826
   -14.9331 -14.9120 -14.9077 -14.8912 -14.8815 -14.8621 -14.8550 -14.8338
    11.9898  12.2300  12.7156  12.8238  12.8656  13.0072  13.1736  13.4307
    14.0674  14.1376  14.2480  14.3216  14.5503  14.6056  14.7135  14.7467
    14.9492  15.1558  15.2980  15.3231  15.4107  15.4860  15.7350  15.8608
    16.5602  16.6591  16.7440  16.8223  16.9490  17.2588

          k =-0.0657-0.0569 0.1006 (  4590 PWs)   bands (ev):

   -41.2686 -39.0934 -39.0683 -39.0679 -39.0524 -39.0432 -39.0202 -39.0046
   -17.5514 -17.5420 -17.5049 -15.5115 -15.4954 -15.4536 -15.3602 -15.3456
   -15.2952 -15.2648 -15.2183 -15.1609 -15.1151 -15.0626 -15.0126 -14.9514
   -14.9448 -14.9109 -14.8998 -14.8876 -14.8799 -14.8769 -14.8678 -14.8413
    12.3263  12.3356  12.5108  12.5721  12.9031  12.9563  13.1633  13.3972
    14.2795  14.2946  14.3455  14.3526  14.4629  14.5163  14.5587  14.6846
    15.0689  15.1875  15.2568  15.2853  15.4269  15.5594  15.5764  15.7361
    16.7904  16.7926  16.8792  16.8923  16.9530  16.9651

          k =-0.0328-0.0569 0.0000 (  4617 PWs)   bands (ev):

   -41.2690 -39.1506 -39.0862 -39.0627 -39.0354 -39.0126 -39.0029 -38.9982
   -17.5484 -17.5428 -17.5092 -15.5111 -15.4869 -15.4012 -15.3724 -15.3401
   -15.3316 -15.2779 -15.2288 -15.1861 -15.1490 -15.0516 -15.0415 -15.0239
   -14.9979 -14.9367 -14.9092 -14.8830 -14.8618 -14.8346 -14.7784 -14.7451
    10.4744  12.3548  12.4054  12.8406  13.0521  13.1091  13.2077  13.3344
    13.4142  13.4981  13.5540  14.5910  14.6342  14.7049  14.9062  15.1151
    15.3964  15.5681  15.5800  15.8020  15.9268  16.0193  16.0512  16.1718
    16.2884  16.4776  16.5829  16.6175  16.7210  17.0211

          k =-0.0328-0.0569-0.0168 (  4606 PWs)   bands (ev):

   -41.2690 -39.1487 -39.0850 -39.0621 -39.0368 -39.0134 -39.0041 -38.9986
   -17.5487 -17.5429 -17.5089 -15.5112 -15.4843 -15.4148 -15.3975 -15.3461
   -15.2984 -15.2816 -15.2268 -15.1915 -15.1324 -15.0465 -15.0368 -15.0241
   -14.9949 -14.9410 -14.9075 -14.8796 -14.8673 -14.8337 -14.7807 -14.7511
    10.5258  12.3409  12.3854  12.8503  12.9607  13.1593  13.2383  13.3615
    13.4287  13.5648  13.6424  14.5446  14.5797  14.6166  14.9125  15.0146
    15.3717  15.5845  15.6299  15.7635  15.9914  16.0567  16.1193  16.1600
    16.1874  16.3359  16.6111  16.6520  16.7866  17.1391

          k =-0.0328-0.0569-0.0335 (  4613 PWs)   bands (ev):

   -41.2689 -39.1430 -39.0815 -39.0604 -39.0411 -39.0156 -39.0076 -38.9996
   -17.5494 -17.5436 -17.5082 -15.5160 -15.4746 -15.4462 -15.4226 -15.3516
   -15.3116 -15.2469 -15.2211 -15.1932 -15.0901 -15.0461 -15.0299 -15.0105
   -14.9893 -14.9465 -14.9093 -14.8822 -14.8684 -14.8348 -14.7876 -14.7672
    10.6775  12.3148  12.3525  12.8295  12.9034  13.1998  13.2538  13.4277
    13.5144  13.6503  13.8840  14.2992  14.5264  14.5584  14.7719  14.9585
    15.2814  15.5775  15.6025  15.8294  15.9069  16.0910  16.1457  16.1939
    16.2545  16.2703  16.4804  16.7102  16.8927  17.3579

          k =-0.0328-0.0569-0.0503 (  4605 PWs)   bands (ev):

   -41.2688 -39.1340 -39.0761 -39.0594 -39.0468 -39.0188 -39.0130 -39.0010
   -17.5503 -17.5445 -17.5072 -15.5253 -15.4820 -15.4606 -15.4389 -15.3489
   -15.3340 -15.2614 -15.1985 -15.1492 -15.0628 -15.0359 -15.0251 -14.9909
   -14.9872 -14.9380 -14.9188 -14.8962 -14.8588 -14.8430 -14.8010 -14.7867
    10.9218  12.3083  12.3483  12.7735  12.8876  13.1591  13.2170  13.5015
    13.6176  13.7446  14.0251  14.2227  14.5057  14.5282  14.6112  15.0338
    15.1176  15.4699  15.5202  15.6903  15.9235  16.0832  16.1457  16.1936
    16.3359  16.3917  16.4601  16.8120  16.8353  17.6215

          k =-0.0328-0.0569-0.0670 (  4611 PWs)   bands (ev):

   -41.2688 -39.1224 -39.0696 -39.0649 -39.0480 -39.0227 -39.0196 -39.0022
   -17.5513 -17.5453 -17.5062 -15.5332 -15.5057 -15.4731 -15.4334 -15.3726
   -15.3090 -15.2882 -15.1722 -15.0910 -15.0903 -15.0378 -14.9882 -14.9855
   -14.9616 -14.9342 -14.9238 -14.8993 -14.8612 -14.8549 -14.8249 -14.8006
    11.2452  12.3483  12.3935  12.7037  12.8144  13.0159  13.0786  13.4497
    13.7790  13.8674  13.9738  14.3810  14.5282  14.6080  14.6359  14.8980
    15.0832  15.2796  15.5135  15.6457  15.8939  15.9931  16.0662  16.1069
    16.3491  16.6122  16.6379  16.7047  16.9626  17.7824

          k =-0.0328-0.0569-0.0838 (  4592 PWs)   bands (ev):

   -41.2687 -39.1096 -39.0762 -39.0635 -39.0450 -39.0266 -39.0258 -39.0031
   -17.5519 -17.5459 -17.5054 -15.5368 -15.5225 -15.4841 -15.4258 -15.3950
   -15.3112 -15.2591 -15.1479 -15.1309 -15.0630 -15.0368 -14.9792 -14.9581
   -14.9487 -14.9287 -14.9131 -14.8920 -14.8774 -14.8642 -14.8538 -14.8101
    11.6268  12.4070  12.4509  12.5093  12.7915  12.8388  12.9286  13.2561
    14.0012  14.0377  14.1425  14.3975  14.4580  14.5351  14.6527  14.8938
    15.0142  15.3541  15.6226  15.6953  15.7315  15.8362  15.9699  15.9972
    16.3907  16.5771  16.8649  16.8704  17.1162  17.4791

          k =-0.0328-0.0569 0.1006 (  4592 PWs)   bands (ev):

   -41.2687 -39.1010 -39.0845 -39.0607 -39.0432 -39.0286 -39.0285 -39.0033
   -17.5522 -17.5461 -17.5051 -15.5367 -15.5295 -15.4875 -15.4227 -15.4041
   -15.3190 -15.2183 -15.1774 -15.1226 -15.0804 -14.9999 -14.9925 -14.9556
   -14.9490 -14.9062 -14.8954 -14.8882 -14.8875 -14.8803 -14.8711 -14.8140
    12.0267  12.0425  12.5788  12.6111  12.6430  12.7010  12.9694  13.1237
    14.2035  14.2198  14.2607  14.3262  14.3493  14.4139  14.5849  14.7417
    15.3317  15.4496  15.4864  15.6713  15.7752  15.8305  15.8630  15.8923
    16.4499  16.4878  17.1442  17.1545  17.1572  17.1857

          k =-0.0493-0.0664 0.0000 (  4613 PWs)   bands (ev):

   -41.2690 -39.1374 -39.0991 -39.0656 -39.0285 -39.0142 -39.0057 -38.9983
   -17.5462 -17.5405 -17.5090 -15.4802 -15.4445 -15.3714 -15.3532 -15.3167
   -15.3044 -15.2493 -15.2325 -15.2055 -15.1360 -15.1001 -15.0640 -15.0477
   -15.0379 -14.9676 -14.9119 -14.9106 -14.8647 -14.8121 -14.7997 -14.7567
    10.9199  11.9463  12.4099  13.0958  13.1211  13.3320  13.4601  13.5644
    13.6376  13.7336  13.8227  14.2856  14.3953  14.4950  14.6531  14.6713
    15.2831  15.4790  15.5854  15.7366  15.8013  15.8487  15.9313  16.1524
    16.3422  16.5127  16.6872  16.8224  16.8928  17.1696

          k =-0.0493-0.0664-0.0168 (  4613 PWs)   bands (ev):

   -41.2689 -39.1356 -39.0978 -39.0649 -39.0297 -39.0155 -39.0069 -38.9986
   -17.5464 -17.5407 -17.5087 -15.4761 -15.4497 -15.3889 -15.3617 -15.3142
   -15.2934 -15.2530 -15.2457 -15.1712 -15.1409 -15.0995 -15.0678 -15.0432
   -15.0315 -14.9671 -14.9193 -14.8990 -14.8667 -14.8140 -14.8015 -14.7614
    10.9653  11.9632  12.4119  13.0808  13.1454  13.3613  13.4941  13.5439
    13.6667  13.7327  13.8270  14.3117  14.3456  14.4966  14.5934  14.6672
    15.2868  15.4700  15.5577  15.6454  15.8215  15.9190  15.9885  16.0839
    16.2939  16.4655  16.6902  16.7666  16.9189  17.2973

          k =-0.0493-0.0664-0.0335 (  4610 PWs)   bands (ev):

   -41.2689 -39.1303 -39.0938 -39.0628 -39.0336 -39.0189 -39.0106 -38.9992
   -17.5471 -17.5413 -17.5080 -15.4720 -15.4538 -15.4150 -15.3866 -15.3225
   -15.2865 -15.2560 -15.2288 -15.1593 -15.1146 -15.0957 -15.0695 -15.0509
   -15.0060 -14.9589 -14.9278 -14.8891 -14.8673 -14.8227 -14.8062 -14.7749
    11.0991  12.0158  12.4244  13.0579  13.1970  13.4186  13.4808  13.5853
    13.6718  13.7623  13.8833  14.2042  14.3647  14.4266  14.5515  14.7071
    15.2615  15.4312  15.4681  15.5615  15.7597  15.9718  16.0306  16.1151
    16.1972  16.3611  16.6047  16.7101  17.0519  17.5010

          k =-0.0493-0.0664-0.0503 (  4603 PWs)   bands (ev):

   -41.2688 -39.1219 -39.0876 -39.0599 -39.0400 -39.0240 -39.0161 -38.9999
   -17.5480 -17.5421 -17.5069 -15.4821 -15.4482 -15.4305 -15.4102 -15.3353
   -15.3024 -15.2403 -15.2228 -15.1413 -15.1176 -15.0793 -15.0497 -15.0395
   -14.9842 -14.9404 -14.9341 -14.8942 -14.8598 -14.8391 -14.8152 -14.7951
    11.3152  12.1082  12.4607  13.0438  13.2094  13.3359  13.4008  13.6699
    13.7455  13.8653  13.8963  14.1203  14.2451  14.5226  14.6177  14.7839
    15.1762  15.3257  15.3450  15.5208  15.5761  15.9121  16.0069  16.0896
    16.2497  16.3603  16.5240  16.7424  17.0828  17.6486

          k =-0.0493-0.0664-0.0670 (  4594 PWs)   bands (ev):

   -41.2687 -39.1113 -39.0799 -39.0587 -39.0464 -39.0305 -39.0224 -39.0006
   -17.5489 -17.5428 -17.5059 -15.4909 -15.4690 -15.4311 -15.4055 -15.3551
   -15.3070 -15.2510 -15.2097 -15.1532 -15.0958 -15.0790 -15.0206 -14.9988
   -14.9661 -14.9440 -14.9120 -14.9022 -14.8660 -14.8525 -14.8315 -14.8177
    11.6029  12.2440  12.5324  12.9976  13.0744  13.1613  13.2579  13.6917
    13.8544  13.9055  14.0380  14.1482  14.3496  14.6280  14.6601  14.8473
    15.0636  15.1832  15.2405  15.3960  15.5166  15.7303  15.8676  15.9365
    16.4147  16.5079  16.5875  16.8031  16.9995  17.5885

          k =-0.0493-0.0664-0.0838 (  4588 PWs)   bands (ev):

   -41.2686 -39.1000 -39.0725 -39.0651 -39.0460 -39.0374 -39.0281 -39.0010
   -17.5496 -17.5434 -17.5052 -15.4954 -15.4848 -15.4380 -15.3899 -15.3722
   -15.2978 -15.2666 -15.2047 -15.1738 -15.0957 -15.0399 -15.0004 -14.9750
   -14.9535 -14.9315 -14.9093 -14.8887 -14.8862 -14.8617 -14.8584 -14.8332
    11.9458  12.4198  12.6390  12.7125  12.9068  12.9736  13.2113  13.5257
    14.0626  14.1107  14.2161  14.2788  14.4396  14.5799  14.6335  14.7523
    15.0117  15.1934  15.2520  15.3629  15.4225  15.5560  15.6797  15.7492
    16.6085  16.6813  16.8016  16.8714  16.9079  17.3302

          k =-0.0493-0.0664 0.1006 (  4582 PWs)   bands (ev):

   -41.2686 -39.0934 -39.0713 -39.0684 -39.0432 -39.0419 -39.0308 -39.0011
   -17.5498 -17.5436 -17.5049 -15.4961 -15.4913 -15.4388 -15.3918 -15.3718
   -15.2959 -15.2584 -15.2277 -15.1677 -15.0987 -15.0127 -15.0025 -14.9634
   -14.9580 -14.9127 -14.9050 -14.8887 -14.8865 -14.8749 -14.8745 -14.8390
    12.3179  12.3185  12.6236  12.6917  12.7654  12.8393  13.2469  13.4325
    14.2429  14.2863  14.3268  14.3585  14.3853  14.4813  14.5029  14.6591
    15.1071  15.1993  15.3307  15.3618  15.3832  15.4885  15.5370  15.6414
    16.7337  16.7403  16.9883  17.0000  17.0705  17.0742

          k =-0.0657-0.0758 0.0000 (  4622 PWs)   bands (ev):

   -41.2690 -39.1284 -39.1081 -39.0666 -39.0243 -39.0164 -39.0067 -38.9984
   -17.5453 -17.5397 -17.5089 -15.4600 -15.4225 -15.3949 -15.3372 -15.3111
   -15.2533 -15.2365 -15.2340 -15.1879 -15.1773 -15.1307 -15.0745 -15.0567
   -15.0460 -14.9718 -14.9305 -14.9129 -14.8609 -14.8101 -14.8005 -14.7642
    11.4012  11.4609  12.4246  13.1128  13.2559  13.4420  13.6191  13.6603
    13.7882  13.9427  14.0134  14.1059  14.1941  14.3275  14.3970  14.5488
    15.2395  15.4391  15.5790  15.6535  15.7793  15.8923  15.9052  15.9745
[...]
    16.5333  16.7588  17.2151  17.3481  17.3502  17.6692  17.7357  17.7627
    18.3972  18.4200  18.4689  18.5219  18.7371  19.4228

          k =-0.0350-0.0606-0.0641 (  4262 PWs)   bands (ev):

   -39.4831 -37.4269 -37.3699 -37.3129 -37.2977 -37.2783 -37.2602 -37.2395
   -15.8221 -15.8029 -15.7546 -14.0262 -13.9732 -13.9236 -13.8979 -13.7397
   -13.6798 -13.5844 -13.4818 -13.4382 -13.3846 -13.3174 -13.3125 -13.2545
   -13.2341 -13.1919 -13.1552 -13.1334 -13.1246 -13.0906 -12.9974 -12.9076
    12.7123  13.7338  13.7842  14.0692  14.1669  14.2761  14.3427  14.8263
    15.0551  15.1451  15.3916  15.6174  15.6973  15.7860  16.0257  16.2970
    16.4409  16.6723  17.2641  17.3085  17.4118  17.6654  17.8076  17.8239
    18.4468  18.6354  18.6561  18.6739  18.7475  19.3969

          k =-0.0350-0.0606-0.0801 (  4247 PWs)   bands (ev):

   -39.4831 -37.4177 -37.3784 -37.3048 -37.2969 -37.2863 -37.2608 -37.2406
   -15.8227 -15.8034 -15.7534 -14.0283 -13.9845 -13.9332 -13.9024 -13.7535
   -13.6063 -13.5944 -13.4720 -13.4385 -13.3797 -13.3368 -13.2908 -13.2724
   -13.2462 -13.1936 -13.1439 -13.1352 -13.1223 -13.1045 -12.9978 -12.9111
    13.0640  13.7808  13.7949  13.8686  14.0836  14.1439  14.2501  14.6189
    15.2072  15.2495  15.4864  15.5492  15.5878  15.7689  15.9130  16.1562
    16.6607  16.7570  17.1490  17.4322  17.4803  17.5511  17.7753  17.7952
    18.4719  18.5988  18.8709  18.9018  18.9193  19.1894

          k =-0.0350-0.0606 0.0961 (  4230 PWs)   bands (ev):

   -39.4830 -37.4131 -37.3828 -37.2980 -37.2969 -37.2927 -37.2610 -37.2410
   -15.8229 -15.8035 -15.7529 -14.0289 -13.9886 -13.9366 -13.9038 -13.7585
   -13.5981 -13.5474 -13.5028 -13.4569 -13.3525 -13.3227 -13.3149 -13.2816
   -13.2418 -13.1943 -13.1426 -13.1246 -13.1240 -13.1158 -12.9980 -12.9125
    13.4371  13.4418  13.8958  13.9239  13.9661  14.0172  14.3023  14.4875
    15.3235  15.3466  15.4557  15.4801  15.6292  15.7419  15.8234  16.0559
    16.8196  16.9207  17.1510  17.1623  17.5798  17.6813  17.6982  17.7082
    18.5089  18.5442  19.0084  19.0817  19.1299  19.1624

          k =-0.0525-0.0707 0.0000 (  4246 PWs)   bands (ev):

   -39.4831 -37.4231 -37.3575 -37.3361 -37.3057 -37.2738 -37.2560 -37.2333
   -15.8115 -15.7922 -15.7586 -13.9339 -13.8330 -13.8174 -13.7933 -13.7206
   -13.6818 -13.6521 -13.5443 -13.5324 -13.4362 -13.4032 -13.3421 -13.3404
   -13.2416 -13.2092 -13.1516 -13.1256 -13.0968 -13.0879 -13.0233 -12.9402
    12.5017  13.5820  14.0992  14.4311  14.6475  14.7660  14.8035  14.9353
    14.9673  15.2625  15.4400  15.8058  15.9950  16.0859  16.2676  16.3470
    16.6294  16.8813  16.9094  17.0473  17.0852  17.1524  17.3429  17.6975
    18.0207  18.0229  18.1827  18.4277  18.7688  18.8416

          k =-0.0525-0.0707-0.0160 (  4252 PWs)   bands (ev):

   -39.4831 -37.4215 -37.3566 -37.3363 -37.3065 -37.2749 -37.2563 -37.2335
   -15.8118 -15.7924 -15.7582 -13.9356 -13.8402 -13.8157 -13.7954 -13.7289
   -13.6643 -13.6499 -13.5666 -13.5039 -13.4383 -13.4033 -13.3461 -13.3312
   -13.2429 -13.2066 -13.1552 -13.1275 -13.1052 -13.0854 -13.0228 -12.9415
    12.5422  13.5858  14.0759  14.4312  14.6608  14.7586  14.8111  14.9426
    14.9784  15.2821  15.4692  15.7393  15.9968  16.0581  16.1804  16.2556
    16.7285  16.8390  16.9171  16.9664  17.0911  17.2300  17.4155  17.5145
    18.0632  18.1352  18.2824  18.4222  18.8166  18.8888

          k =-0.0525-0.0707-0.0320 (  4245 PWs)   bands (ev):

   -39.4831 -37.4169 -37.3544 -37.3365 -37.3084 -37.2783 -37.2572 -37.2341
   -15.8123 -15.7929 -15.7571 -13.9397 -13.8575 -13.8223 -13.7917 -13.7269
   -13.6761 -13.6081 -13.5812 -13.4872 -13.4260 -13.4027 -13.3556 -13.3113
   -13.2449 -13.2019 -13.1666 -13.1371 -13.1187 -13.0827 -13.0222 -12.9451
    12.6621  13.6029  14.0301  14.4250  14.6788  14.7134  14.7912  14.9674
    15.0476  15.3379  15.5070  15.6076  15.8596  16.0102  16.0990  16.2446
    16.6720  16.7753  16.8584  16.9625  17.1003  17.2756  17.3836  17.5095
    18.1231  18.1738  18.4282  18.6299  18.7968  18.9645

          k =-0.0525-0.0707-0.0481 (  4253 PWs)   bands (ev):

   -39.4830 -37.4097 -37.3530 -37.3361 -37.3105 -37.2836 -37.2584 -37.2349
   -15.8132 -15.7937 -15.7556 -13.9448 -13.8779 -13.8357 -13.7850 -13.7095
   -13.6915 -13.5873 -13.5614 -13.4923 -13.4097 -13.3834 -13.3670 -13.2887
   -13.2462 -13.2024 -13.1847 -13.1572 -13.1260 -13.0805 -13.0225 -12.9506
    12.8554  13.6458  13.9992  14.4111  14.5715  14.6566  14.7082  15.0562
    15.1529  15.3589  15.4298  15.5283  15.8189  16.0221  16.0507  16.2864
    16.5338  16.6381  16.7725  16.9244  17.1224  17.2687  17.3515  17.5160
    18.1842  18.2904  18.5099  18.7372  18.9374  19.2163

          k =-0.0525-0.0707-0.0641 (  4251 PWs)   bands (ev):

   -39.4829 -37.4006 -37.3559 -37.3326 -37.3120 -37.2901 -37.2596 -37.2356
   -15.8141 -15.7944 -15.7540 -13.9491 -13.8957 -13.8477 -13.7808 -13.7205
   -13.6640 -13.5802 -13.5492 -13.4836 -13.4149 -13.3713 -13.3422 -13.2701
   -13.2499 -13.2258 -13.1959 -13.1702 -13.1336 -13.0781 -13.0236 -12.9567
    13.1127  13.7253  14.0055  14.3485  14.3987  14.4993  14.6003  15.1454
    15.1934  15.2906  15.5093  15.5499  15.9262  15.9698  16.0117  16.3326
    16.4027  16.4691  16.7976  16.9416  17.0556  17.2305  17.2674  17.4386
    18.3353  18.4011  18.6678  18.7509  19.0492  19.1464

          k =-0.0525-0.0707-0.0801 (  4244 PWs)   bands (ev):

   -39.4829 -37.3910 -37.3625 -37.3268 -37.3132 -37.2964 -37.2605 -37.2362
   -15.8147 -15.7949 -15.7529 -13.9517 -13.9077 -13.8554 -13.7773 -13.7364
   -13.6231 -13.5729 -13.5545 -13.4931 -13.4005 -13.3595 -13.3109 -13.2799
   -13.2553 -13.2423 -13.2062 -13.1695 -13.1435 -13.0759 -13.0247 -12.9616
    13.4189  13.8427  14.0492  14.1058  14.2365  14.3125  14.5863  14.9484
    15.3593  15.4634  15.6108  15.6642  15.8029  15.8779  16.0047  16.1552
    16.4676  16.5655  16.8671  16.9144  17.0312  17.1030  17.1718  17.3239
    18.5077  18.5721  18.8183  18.8442  18.8945  19.0059

          k =-0.0525-0.0707 0.0961 (  4246 PWs)   bands (ev):

   -39.4829 -37.3854 -37.3672 -37.3232 -37.3144 -37.2993 -37.2609 -37.2363
   -15.8149 -15.7951 -15.7525 -13.9526 -13.9119 -13.8580 -13.7753 -13.7432
   -13.5919 -13.5887 -13.5408 -13.5158 -13.3903 -13.3321 -13.3192 -13.2874
   -13.2687 -13.2304 -13.2166 -13.1645 -13.1505 -13.0750 -13.0251 -12.9635
    13.7477  13.7501  13.9951  14.0699  14.1267  14.2127  14.6168  14.8517
    15.5020  15.5924  15.6278  15.6896  15.7290  15.8516  15.8942  16.0660
    16.6136  16.6348  16.8183  16.9228  17.0036  17.0684  17.1310  17.2419
    18.6263  18.6578  18.8802  18.8835  18.9134  18.9179

          k =-0.0699-0.0808 0.0000 (  4229 PWs)   bands (ev):

   -39.4831 -37.4021 -37.3776 -37.3313 -37.3063 -37.2808 -37.2552 -37.2326
   -15.8083 -15.7891 -15.7584 -13.8868 -13.8034 -13.7899 -13.7689 -13.7123
   -13.6318 -13.5692 -13.5592 -13.5359 -13.5227 -13.5148 -13.3364 -13.3294
   -13.2934 -13.2118 -13.1730 -13.1197 -13.0979 -13.0817 -13.0212 -12.9680
    13.0257  13.0910  14.1628  14.4877  14.7908  14.8295  14.9951  15.2482
    15.3105  15.4215  15.4696  15.6595  15.7574  15.9342  16.0800  16.1853
    16.5541  16.7232  16.8964  16.9566  17.0064  17.1163  17.6049  17.7001
    18.0441  18.1442  18.1748  18.1996  18.5679  18.7208

          k =-0.0699-0.0808-0.0160 (  4243 PWs)   bands (ev):

   -39.4830 -37.4005 -37.3765 -37.3309 -37.3080 -37.2818 -37.2555 -37.2328
   -15.8085 -15.7894 -15.7580 -13.8881 -13.8107 -13.7847 -13.7800 -13.6968
   -13.6389 -13.5787 -13.5608 -13.5305 -13.5177 -13.5008 -13.3425 -13.3175
   -13.2972 -13.2089 -13.1754 -13.1230 -13.1055 -13.0788 -13.0212 -12.9697
    13.0560  13.1161  14.1567  14.5029  14.7996  14.8099  14.9992  15.2057
    15.3178  15.4052  15.4612  15.6645  15.7717  15.8831  16.0774  16.1902
    16.6270  16.6846  16.8439  16.9524  16.9953  17.1112  17.5427  17.5777
    18.0679  18.1509  18.3142  18.3233  18.6441  18.7000

          k =-0.0699-0.0808-0.0320 (  4259 PWs)   bands (ev):

   -39.4830 -37.3958 -37.3734 -37.3298 -37.3128 -37.2848 -37.2565 -37.2332
   -15.8092 -15.7900 -15.7570 -13.8916 -13.8284 -13.7969 -13.7695 -13.6800
   -13.6432 -13.5930 -13.5595 -13.5330 -13.5131 -13.4558 -13.3504 -13.3043
   -13.2949 -13.2037 -13.1837 -13.1331 -13.1240 -13.0721 -13.0215 -12.9748
    13.1459  13.1914  14.1450  14.5248  14.7500  14.8427  14.9426  15.1693
    15.2491  15.3915  15.4821  15.6381  15.8035  15.8301  16.1064  16.2234
    16.5800  16.6996  16.7365  16.9337  16.9590  17.0800  17.4087  17.4512
    18.0717  18.1060  18.6232  18.6356  18.6830  18.6964

          k =-0.0699-0.0808-0.0481 (  4256 PWs)   bands (ev):

   -39.4829 -37.3883 -37.3687 -37.3283 -37.3203 -37.2893 -37.2579 -37.2337
   -15.8100 -15.7907 -15.7554 -13.8968 -13.8480 -13.8112 -13.7474 -13.6835
   -13.6329 -13.6059 -13.5717 -13.5208 -13.4981 -13.4102 -13.3553 -13.3053
   -13.2718 -13.2019 -13.2004 -13.1584 -13.1364 -13.0634 -13.0225 -12.9833
    13.2914  13.3162  14.1397  14.4941  14.7071  14.7848  14.8060  15.1600
    15.2247  15.4084  15.4786  15.6404  15.8208  15.9006  16.1517  16.2598
    16.4508  16.5758  16.6885  16.8829  16.9405  17.0130  17.2711  17.3553
    18.0684  18.1384  18.6826  18.6967  19.0018  19.0271

          k =-0.0699-0.0808-0.0641 (  4253 PWs)   bands (ev):

   -39.4828 -37.3786 -37.3635 -37.3307 -37.3260 -37.2945 -37.2594 -37.2342
   -15.8108 -15.7914 -15.7538 -13.9021 -13.8650 -13.8214 -13.7208 -13.6864
   -13.6393 -13.6125 -13.5858 -13.5106 -13.4679 -13.3739 -13.3455 -13.3002
   -13.2569 -13.2286 -13.2092 -13.1792 -13.1470 -13.0530 -13.0240 -12.9945
    13.4786  13.4949  14.1507  14.3973  14.5124  14.5927  14.7788  15.1498
    15.2772  15.4560  15.5675  15.7068  15.8252  16.0055  16.1237  16.2028
    16.4325  16.4764  16.6506  16.7840  16.8493  16.9603  17.1335  17.2447
    18.1802  18.2027  18.7833  18.7849  19.0361  19.3049

          k =-0.0699-0.0808-0.0801 (  4252 PWs)   bands (ev):

   -39.4828 -37.3673 -37.3591 -37.3418 -37.3248 -37.2991 -37.2605 -37.2346
   -15.8114 -15.7919 -15.7527 -13.9056 -13.8771 -13.8271 -13.6936 -13.6837
   -13.6512 -13.6323 -13.5857 -13.5157 -13.4254 -13.3444 -13.3303 -13.2908
   -13.2805 -13.2385 -13.2270 -13.1828 -13.1574 -13.0417 -13.0253 -13.0067
    13.6899  13.7268  14.1779  14.1998  14.3210  14.3681  14.7901  15.0772
    15.4473  15.5853  15.6252  15.8051  15.8226  15.9327  16.0642  16.1375
    16.4452  16.5651  16.6488  16.6788  16.7700  16.8526  17.0013  17.1407
    18.2842  18.4370  18.6960  18.9372  18.9625  19.1485

          k =-0.0699-0.0808 0.0961 (  4252 PWs)   bands (ev):

   -39.4828 -37.3577 -37.3574 -37.3514 -37.3242 -37.3010 -37.2609 -37.2347
   -15.8116 -15.7921 -15.7523 -13.9066 -13.8817 -13.8289 -13.6852 -13.6646
   -13.6641 -13.6483 -13.5839 -13.5204 -13.3984 -13.3340 -13.3184 -13.3080
   -13.2849 -13.2420 -13.2346 -13.1806 -13.1632 -13.0346 -13.0259 -13.0142
    13.8891  13.9204  13.9841  14.1114  14.2092  14.3149  14.7920  15.0496
    15.6177  15.6570  15.6610  15.6848  15.8666  15.8916  15.9898  16.1457
    16.4853  16.5871  16.6732  16.6918  16.7186  16.7728  16.9299  17.0905
    18.4418  18.4463  18.7697  18.7726  19.1233  19.1276

          k =-0.0525-0.0909 0.0000 (  4243 PWs)   bands (ev):

   -39.4830 -37.3974 -37.3703 -37.3458 -37.3007 -37.2854 -37.2554 -37.2312
   -15.8020 -15.7933 -15.7584 -13.8515 -13.7758 -13.7459 -13.7242 -13.6987
   -13.6633 -13.6482 -13.6174 -13.5544 -13.5440 -13.5039 -13.3270 -13.3154
   -13.2543 -13.2192 -13.1273 -13.1125 -13.1014 -13.0902 -13.0592 -13.0015
    13.0294  13.5896  13.6045  14.5165  14.9587  15.0564  15.1392  15.1397
    15.2610  15.4659  15.5354  15.6337  15.7005  15.8687  15.9624  16.1183
    16.5469  16.8077  16.8443  16.8988  17.0640  17.2271  17.3394  17.6475
    17.8870  18.1175  18.2639  18.3150  18.4727  18.5375

          k =-0.0525-0.0909-0.0160 (  4236 PWs)   bands (ev):

   -39.4830 -37.3958 -37.3688 -37.3455 -37.3022 -37.2868 -37.2557 -37.2313
   -15.8021 -15.7935 -15.7579 -13.8522 -13.7741 -13.7578 -13.7241 -13.7000
   -13.6629 -13.6359 -13.6308 -13.5656 -13.5130 -13.5025 -13.3306 -13.3084
   -13.2551 -13.2190 -13.1268 -13.1186 -13.1097 -13.0872 -13.0579 -13.0028
    13.0603  13.6055  13.6167  14.5435  14.9191  15.0778  15.0944  15.1628
    15.2689  15.3984  15.5514  15.6289  15.7253  15.8614  15.9607  16.0707
    16.5888  16.7772  16.8413  16.8870  17.0742  17.2060  17.2980  17.4087
    18.1259  18.1569  18.3834  18.4053  18.4416  18.5078

          k =-0.0525-0.0909-0.0320 (  4256 PWs)   bands (ev):

   -39.4830 -37.3914 -37.3647 -37.3448 -37.3065 -37.2911 -37.2566 -37.2314
   -15.8027 -15.7942 -15.7569 -13.8542 -13.7797 -13.7686 -13.7298 -13.7053
   -13.6613 -13.6555 -13.6001 -13.5759 -13.4993 -13.4625 -13.3393 -13.2929
   -13.2553 -13.2186 -13.1448 -13.1290 -13.1141 -13.0841 -13.0572 -13.0066
    13.1518  13.6535  13.6552  14.6094  14.8130  14.9910  15.1132  15.2070
    15.2314  15.3502  15.5539  15.6112  15.7752  15.8340  15.9304  16.0482
    16.6497  16.7249  16.8009  16.8396  17.0641  17.1046  17.1534  17.2561
    18.1415  18.3865  18.4292  18.5504  18.6767  18.6838

          k =-0.0525-0.0909-0.0481 (  4254 PWs)   bands (ev):

   -39.4829 -37.3843 -37.3581 -37.3440 -37.3131 -37.2978 -37.2580 -37.2315
   -15.8035 -15.7949 -15.7554 -13.8577 -13.7995 -13.7604 -13.7391 -13.7132
   -13.6805 -13.6511 -13.5934 -13.5520 -13.4894 -13.4119 -13.3480 -13.2787
   -13.2505 -13.2187 -13.1813 -13.1444 -13.1072 -13.0844 -13.0590 -13.0124
    13.3001  13.7221  13.7367  14.6229  14.6818  14.9005  14.9330  15.2721
    15.3209  15.3846  15.5261  15.5847  15.7413  15.8665  15.9715  16.0892
    16.6026  16.6440  16.7101  16.8049  16.8609  17.0317  17.0693  17.2043
    18.1643  18.3896  18.4226  18.6654  18.9550  19.0437

          k =-0.0525-0.0909-0.0641 (  4253 PWs)   bands (ev):

   -39.4828 -37.3753 -37.3496 -37.3438 -37.3209 -37.3065 -37.2593 -37.2316
   -15.8044 -15.7956 -15.7537 -13.8626 -13.8138 -13.7534 -13.7424 -13.7188
   -13.6999 -13.6504 -13.5991 -13.5172 -13.4696 -13.3686 -13.3448 -13.2732
   -13.2428 -13.2300 -13.2175 -13.1581 -13.1008 -13.0873 -13.0624 -13.0189
    13.4977  13.8221  13.8531  14.4508  14.5599  14.6711  14.9164  15.3230
    15.3965  15.4383  15.5702  15.6035  15.7246  15.9516  16.0408  16.1495
    16.4405  16.4629  16.6627  16.7020  16.7942  16.9173  16.9839  17.1259
    18.2064  18.5049  18.5250  18.7355  19.0063  19.2835

          k =-0.0525-0.0909-0.0801 (  4256 PWs)   bands (ev):

   -39.4828 -37.3653 -37.3470 -37.3389 -37.3275 -37.3166 -37.2604 -37.2316
   -15.8050 -15.7962 -15.7526 -13.8673 -13.8221 -13.7534 -13.7386 -13.7204
   -13.7073 -13.6644 -13.5932 -13.5120 -13.4279 -13.3407 -13.3250 -13.2863
   -13.2646 -13.2397 -13.2256 -13.1654 -13.0965 -13.0905 -13.0656 -13.0243
    13.7325  13.9530  13.9976  14.2413  14.3875  14.4070  14.9514  15.2342
    15.4497  15.6037  15.6809  15.7108  15.7509  15.9944  16.0096  16.1551
    16.3412  16.4214  16.5397  16.6210  16.7314  16.7979  16.8888  17.0666
    18.2874  18.6752  18.7304  18.7369  18.8950  19.2690

          k =-0.0525-0.0909 0.0961 (  4266 PWs)   bands (ev):

   -39.4828 -37.3578 -37.3516 -37.3305 -37.3299 -37.3252 -37.2607 -37.2317
   -15.8052 -15.7963 -15.7523 -13.8692 -13.8248 -13.7522 -13.7414 -13.7197
   -13.7024 -13.6759 -13.5887 -13.5149 -13.3982 -13.3278 -13.3173 -13.3099
   -13.2710 -13.2393 -13.2308 -13.1668 -13.0951 -13.0917 -13.0669 -13.0265
    13.9641  13.9866  14.1079  14.1185  14.2317  14.2593  14.9637  15.1921
    15.4773  15.6785  15.7897  15.7950  15.8184  15.8764  15.9325  16.1227
    16.4074  16.4500  16.5197  16.5740  16.5811  16.7867  16.8427  17.0469
    18.4346  18.4358  19.0065  19.0186  19.0227  19.0414

     the Fermi energy is    17.1951 ev

!    total energy              =    -942.02564658 Ry
     Harris-Foulkes estimate   =    -942.02564658 Ry
     estimated scf accuracy    <          5.9E-13 Ry

     The total energy is the sum of the following terms:

     one-electron contribution =    -165.24267016 Ry
     hartree contribution      =     133.12438593 Ry
     xc contribution           =    -143.48522987 Ry
     ewald contribution        =    -766.42040221 Ry
     smearing contrib. (-TS)   =      -0.00173027 Ry

     convergence has been achieved in  26 iterations

     Forces acting on atoms (cartesian axes, Ry/au):

     atom    1 type  2   force =     0.00000000    0.00000000    0.00000000
     atom    2 type  1   force =     0.00000000    0.00000410   -0.00000000
     atom    3 type  1   force =    -0.00000000    0.00000562    0.00000000
     atom    4 type  1   force =    -0.00000000   -0.00000000    0.00000000
     atom    5 type  1   force =    -0.00000487   -0.00000281    0.00000000
     atom    6 type  1   force =     0.00000355   -0.00000205   -0.00000000
     atom    7 type  1   force =     0.00000487   -0.00000281   -0.00000000
     atom    8 type  1   force =    -0.00000355   -0.00000205   -0.00000000

     Total force =     0.000012     Total SCF correction =     0.000001


     Computing stress (Cartesian axis) and pressure

          total   stress  (Ry/bohr**3)                   (kbar)     P=    0.22
   0.00000101   0.00000000   0.00000000          0.15      0.00      0.00
   0.00000000   0.00000101   0.00000000          0.00      0.15      0.00
   0.00000000   0.00000000   0.00000252          0.00      0.00      0.37

 
     init_run     :     18.48s CPU     20.74s WALL (       2 calls)
     electrons    :   6001.29s CPU   6959.68s WALL (      18 calls)
     update_pot   :     28.91s CPU     30.30s WALL (      16 calls)
     forces       :     51.17s CPU     53.41s WALL (      18 calls)
     stress       :    140.63s CPU    147.20s WALL (      18 calls)

     Called by init_run:
     wfcinit      :     15.94s CPU     16.23s WALL (       2 calls)
     potinit      :      0.77s CPU      2.48s WALL (       2 calls)
     hinit0       :      1.39s CPU      1.41s WALL (       2 calls)

     Called by electrons:
     c_bands      :   5197.66s CPU   5949.01s WALL (     321 calls)
     sum_band     :    733.96s CPU    779.62s WALL (     321 calls)
     v_of_rho     :     14.59s CPU     14.71s WALL (     330 calls)
     newd         :     55.81s CPU     94.42s WALL (     330 calls)
     mix_rho      :      1.98s CPU      2.00s WALL (     321 calls)

     Called by c_bands:
     init_us_2    :     58.41s CPU     58.68s WALL (   66640 calls)
     cegterg      :   4756.86s CPU   4814.87s WALL (   31458 calls)

     Called by sum_band:
     sum_band:bec :      2.29s CPU      2.31s WALL (   31458 calls)
     addusdens    :     65.77s CPU    100.69s WALL (     321 calls)

     Called by *egterg:
     h_psi        :   2848.74s CPU   2899.91s WALL (  132557 calls)
     s_psi        :    194.24s CPU    194.64s WALL (  132557 calls)
     g_psi        :     26.76s CPU     26.94s WALL (  100903 calls)
     cdiaghg      :   1001.77s CPU   1003.82s WALL (  129911 calls)

     Called by h_psi:
     h_psi:pot    :   2837.59s CPU   2888.13s WALL (  132557 calls)
     h_psi:calbec :    213.47s CPU    214.55s WALL (  132557 calls)
     vloc_psi     :   2428.56s CPU   2477.25s WALL (  132557 calls)
     add_vuspsi   :    195.01s CPU    195.61s WALL (  132557 calls)

     General routines
     calbec       :    318.45s CPU    319.84s WALL (  172835 calls)
     fft          :     10.10s CPU     10.30s WALL (    4747 calls)
     ffts         :      0.30s CPU      0.31s WALL (     651 calls)
     fftw         :   2617.65s CPU   2662.67s WALL (11631424 calls)
     interpolate  :      0.80s CPU      0.83s WALL (     330 calls)
 
     Parallel routines
     fft_scatt_xy :    419.19s CPU    434.37s WALL (11636822 calls)
     fft_scatt_yz :    630.60s CPU    612.75s WALL (11636822 calls)
 
     PWSCF        :     1h44m CPU       44h 2m WALL

       2h
 
   This run was terminated on:  11:37:56  27Feb2020            

=------------------------------------------------------------------------------=
   JOB DONE.
=------------------------------------------------------------------------------=
