
     Program PWSCF v.6.3MaX starts on 21Feb2020 at  8:57:34 

     This program is part of the open-source Quantum ESPRESSO suite
     for quantum simulation of materials; please cite
         "P. Giannozzi et al., J. Phys.:Condens. Matter 21 395502 (2009);
         "P. Giannozzi et al., J. Phys.:Condens. Matter 29 465901 (2017);
          URL http://www.quantum-espresso.org", 
     in publications or presentations arising from this work. More details at
     http://www.quantum-espresso.org/quote

     Parallel version (MPI), running on    12 processors

     MPI processes distributed on     1 nodes
     R & G space division:  proc/nbgrp/npool/nimage =      12
     Waiting for input...
     Reading input from standard input

     Current dimensions of program PWSCF are:
     Max number of different atomic species (ntypx) = 10
     Max number of k-points (npk) =  40000
     Max angular momentum in pseudopotentials (lmaxx) =  3
     Message from routine iosys:
     minimal I/O required, wf_collect reset to FALSE

     Subspace diagonalization in iterative solution of the eigenvalue problem:
     a serial algorithm will be used

--------------------------------------------------------------------------------
NOTICE: Bravais lattice has wrong number ( 3) of symmetries - symmetries are disabled
--------------------------------------------------------------------------------
 
     Parallelization info
     --------------------
     sticks:   dense  smooth     PW     G-vecs:    dense   smooth      PW
     Min         612     244     89                16158     4082     904
     Max         613     245     90                16159     4083     905
     Sum        7345    2939   1073               193897    48993   10859
 


     bravais-lattice index     =            0
     lattice parameter (alat)  =       1.8897  a.u.
     unit-cell volume          =    1026.6786 (a.u.)^3
     number of atoms/cell      =            7
     number of atomic types    =            2
     number of electrons       =        87.00
     number of Kohn-Sham states=           53
     kinetic-energy cutoff     =      50.0000  Ry
     charge density cutoff     =     500.0000  Ry
     convergence threshold     =      1.0E-10
     mixing beta               =       0.6000
     number of iterations used =            8  plain     mixing
     Exchange-correlation      = SLA PW PBE PBE ( 1  4  3  4 0 0)
     nstep                     =           50


     celldm(1)=   1.889726  celldm(2)=   0.000000  celldm(3)=   0.000000
     celldm(4)=   0.000000  celldm(5)=   0.000000  celldm(6)=   0.000000

     crystal axes: (cart. coord. in units of alat)
               a(1) = (   1.758031  -5.274095  -5.274095 )  
               a(2) = (  -5.274095   5.274095  -1.758031 )  
               a(3) = (   5.274095   1.758031   5.274095 )  

     reciprocal axes: (cart. coord. in units 2 pi/alat)
               b(1) = (  0.203149  0.121890 -0.243779 )  
               b(2) = (  0.121890  0.243779 -0.203149 )  
               b(3) = (  0.243779  0.203149 -0.121890 )  


     PseudoPot. # 1 for Nb read from file:
     ./Nb.pbe-nsp-van.UPF
     MD5 check sum: 0a22fc7fb0ba19a08ca5db297a5d2854
     Pseudo is Ultrasoft + core correction, Zval = 13.0
     Generated by new atomic code, or converted to UPF format
     Using radial grid of  887 points,  6 beta functions with: 
                l(1) =   0
                l(2) =   0
                l(3) =   1
                l(4) =   1
                l(5) =   2
                l(6) =   2
     Q(r) pseudized with  6 coefficients,  rinner =    1.000   1.000   1.000
                                                       1.000   1.000

     PseudoPot. # 2 for Ti read from file:
     ./Ti.pbe-sp-van_ak.UPF
     MD5 check sum: f98fea3e8887528921fefa5636a534ca
     Pseudo is Ultrasoft, Zval = 12.0
     Generated by new atomic code, or converted to UPF format
     Using radial grid of  851 points,  6 beta functions with: 
                l(1) =   0
                l(2) =   0
                l(3) =   1
                l(4) =   1
                l(5) =   2
                l(6) =   2
     Q(r) pseudized with  8 coefficients,  rinner =    1.000   1.000   1.000
                                                       1.000   1.000

     atomic species   valence    mass     pseudopotential
        Nb            13.00    92.90638     Nb( 1.00)
        Ti            12.00    47.86700     Ti( 1.00)

     No symmetry found



   Cartesian axes

     site n.     atom                  positions (alat units)
         1           Ti  tau(   1) = (   1.7580316   1.7580316  -1.7580316  )
         2           Ti  tau(   2) = (   0.0000000   3.5160633   0.0000000  )
         3           Ti  tau(   3) = (   3.5160633   0.0000000   0.0000000  )
         4           Ti  tau(   4) = (   1.7580316   1.7580316   1.7580316  )
         5           Nb  tau(   5) = (   1.7580316  -1.7580316  -1.7580316  )
         6           Nb  tau(   6) = (   0.0000000   0.0000000  -3.5160633  )
         7           Nb  tau(   7) = (  -1.7580316   1.7580316  -1.7580316  )

     number of k points=   666  Marzari-Vanderbilt smearing, width (Ry)=  0.0200

     Number of k-points >= 100: set verbosity='high' to print them.

     Dense  grid:   193897 G-vectors     FFT dimensions: ( 108, 108, 108)

     Smooth grid:    48993 G-vectors     FFT dimensions: (  72,  72,  72)

     Estimated max dynamical RAM per process >     343.27 MB

     Estimated total dynamical RAM >       4.02 GB

     Initial potential from superposition of free atoms

     starting charge   82.99162, renormalised to   87.00000
     Starting wfcs are   79 randomized atomic wfcs

     total cpu time spent up to now is       55.5 secs

     Self-consistent Calculation

     iteration #  1     ecut=    50.00 Ry     beta= 0.60
     Davidson diagonalization with overlap
     ethr =  1.00E-02,  avg # of iterations =  3.5

     total cpu time spent up to now is      191.2 secs

     total energy              =    -790.76757224 Ry
     Harris-Foulkes estimate   =    -825.65179014 Ry
     estimated scf accuracy    <      43.43754390 Ry

     iteration #  2     ecut=    50.00 Ry     beta= 0.60
     Davidson diagonalization with overlap
     ethr =  1.00E-02,  avg # of iterations =  6.8

     total cpu time spent up to now is      436.0 secs

     total energy              =    -796.54753648 Ry
     Harris-Foulkes estimate   =    -877.68021304 Ry
     estimated scf accuracy    <     271.69260435 Ry

     iteration #  3     ecut=    50.00 Ry     beta= 0.60
     Davidson diagonalization with overlap
     ethr =  1.00E-02,  avg # of iterations =  5.1

     total cpu time spent up to now is      632.9 secs

     total energy              =    -821.30934853 Ry
     Harris-Foulkes estimate   =    -825.32621898 Ry
     estimated scf accuracy    <      28.65978710 Ry

     iteration #  4     ecut=    50.00 Ry     beta= 0.60
     Davidson diagonalization with overlap
     ethr =  1.00E-02,  avg # of iterations =  2.0

     total cpu time spent up to now is      731.3 secs

     total energy              =    -820.55210364 Ry
     Harris-Foulkes estimate   =    -821.71650271 Ry
     estimated scf accuracy    <      19.62632548 Ry

     iteration #  5     ecut=    50.00 Ry     beta= 0.60
     Davidson diagonalization with overlap
     ethr =  1.00E-02,  avg # of iterations =  1.3

     total cpu time spent up to now is      824.9 secs

     total energy              =    -820.63185669 Ry
     Harris-Foulkes estimate   =    -820.73543085 Ry
     estimated scf accuracy    <      12.39486046 Ry

     iteration #  6     ecut=    50.00 Ry     beta= 0.60
     Davidson diagonalization with overlap
     ethr =  1.00E-02,  avg # of iterations =  1.0

     total cpu time spent up to now is      917.2 secs

     total energy              =    -820.64621008 Ry
     Harris-Foulkes estimate   =    -820.69485041 Ry
     estimated scf accuracy    <      10.95649948 Ry

     iteration #  7     ecut=    50.00 Ry     beta= 0.60
     Davidson diagonalization with overlap
     ethr =  1.00E-02,  avg # of iterations =  1.0

     total cpu time spent up to now is     1009.5 secs

     total energy              =    -820.23045913 Ry
     Harris-Foulkes estimate   =    -820.69087414 Ry
     estimated scf accuracy    <      10.12607317 Ry

     iteration #  8     ecut=    50.00 Ry     beta= 0.60
     Davidson diagonalization with overlap
     ethr =  1.00E-02,  avg # of iterations =  1.0

     total cpu time spent up to now is     1101.7 secs

     total energy              =    -819.75069694 Ry
     Harris-Foulkes estimate   =    -820.46513553 Ry
     estimated scf accuracy    <       6.47265884 Ry

     iteration #  9     ecut=    50.00 Ry     beta= 0.60
     Davidson diagonalization with overlap
     ethr =  7.44E-03,  avg # of iterations =  3.9

     total cpu time spent up to now is     1214.9 secs

     total energy              =    -820.09803590 Ry
     Harris-Foulkes estimate   =    -820.23187152 Ry
     estimated scf accuracy    <       1.67592014 Ry

     iteration # 10     ecut=    50.00 Ry     beta= 0.60
     Davidson diagonalization with overlap
     ethr =  1.93E-03,  avg # of iterations =  5.0

     total cpu time spent up to now is     1378.3 secs

     total energy              =    -821.26748909 Ry
     Harris-Foulkes estimate   =    -820.69349109 Ry
     estimated scf accuracy    <      12.55327908 Ry

     iteration # 11     ecut=    50.00 Ry     beta= 0.60
     Davidson diagonalization with overlap
     ethr =  1.93E-03,  avg # of iterations =  1.1

     total cpu time spent up to now is     1470.9 secs

     total energy              =    -821.39370115 Ry
     Harris-Foulkes estimate   =    -821.47708700 Ry
     estimated scf accuracy    <      34.44533209 Ry

     iteration # 12     ecut=    50.00 Ry     beta= 0.60
     Davidson diagonalization with overlap
     ethr =  1.93E-03,  avg # of iterations =  1.0

     total cpu time spent up to now is     1562.9 secs

     total energy              =    -820.45214299 Ry
     Harris-Foulkes estimate   =    -821.40829122 Ry
     estimated scf accuracy    <      33.31600977 Ry

     iteration # 13     ecut=    50.00 Ry     beta= 0.60
     Davidson diagonalization with overlap
     ethr =  1.93E-03,  avg # of iterations =  1.0

     total cpu time spent up to now is     1654.9 secs

     total energy              =    -819.62039901 Ry
     Harris-Foulkes estimate   =    -820.64110494 Ry
     estimated scf accuracy    <      12.01790149 Ry

     iteration # 14     ecut=    50.00 Ry     beta= 0.60
     Davidson diagonalization with overlap
     ethr =  1.93E-03,  avg # of iterations =  5.2

     total cpu time spent up to now is     1798.5 secs

     total energy              =    -820.14559204 Ry
     Harris-Foulkes estimate   =    -820.40077712 Ry
     estimated scf accuracy    <       3.60967391 Ry

     iteration # 15     ecut=    50.00 Ry     beta= 0.60
     Davidson diagonalization with overlap
     ethr =  1.93E-03,  avg # of iterations =  1.0

     total cpu time spent up to now is     1890.7 secs

     total energy              =    -820.19278863 Ry
     Harris-Foulkes estimate   =    -820.29406378 Ry
     estimated scf accuracy    <       1.24290452 Ry

     iteration # 16     ecut=    50.00 Ry     beta= 0.60
     Davidson diagonalization with overlap
     ethr =  1.43E-03,  avg # of iterations =  1.0

     total cpu time spent up to now is     1983.2 secs

     total energy              =    -820.21455025 Ry
     Harris-Foulkes estimate   =    -820.27443881 Ry
     estimated scf accuracy    <       0.99011802 Ry

     iteration # 17     ecut=    50.00 Ry     beta= 0.60
     Davidson diagonalization with overlap
     ethr =  1.14E-03,  avg # of iterations =  1.0

     total cpu time spent up to now is     2075.3 secs

     total energy              =    -820.23549605 Ry
     Harris-Foulkes estimate   =    -820.24356836 Ry
     estimated scf accuracy    <       0.30310491 Ry

     iteration # 18     ecut=    50.00 Ry     beta= 0.60
     Davidson diagonalization with overlap
     ethr =  3.48E-04,  avg # of iterations =  1.2

     total cpu time spent up to now is     2168.8 secs

     total energy              =    -820.23540694 Ry
     Harris-Foulkes estimate   =    -820.24031471 Ry
     estimated scf accuracy    <       0.22463954 Ry

     iteration # 19     ecut=    50.00 Ry     beta= 0.60
     Davidson diagonalization with overlap
     ethr =  2.58E-04,  avg # of iterations =  1.8

     total cpu time spent up to now is     2265.2 secs

     total energy              =    -820.22623300 Ry
     Harris-Foulkes estimate   =    -820.24190561 Ry
     estimated scf accuracy    <       0.16885592 Ry

     iteration # 20     ecut=    50.00 Ry     beta= 0.60
     Davidson diagonalization with overlap
     ethr =  1.94E-04,  avg # of iterations =  3.6

     total cpu time spent up to now is     2372.8 secs

     total energy              =    -820.22674176 Ry
     Harris-Foulkes estimate   =    -820.23791023 Ry
     estimated scf accuracy    <       0.07566685 Ry

     iteration # 21     ecut=    50.00 Ry     beta= 0.60
     Davidson diagonalization with overlap
     c_bands:  1 eigenvalues not converged
     ethr =  8.70E-05,  avg # of iterations =  7.9

     total cpu time spent up to now is     2526.8 secs

     total energy              =    -820.22874303 Ry
     Harris-Foulkes estimate   =    -820.23777046 Ry
     estimated scf accuracy    <       0.07529144 Ry

     iteration # 22     ecut=    50.00 Ry     beta= 0.60
     Davidson diagonalization with overlap
     ethr =  8.65E-05,  avg # of iterations =  1.2

     total cpu time spent up to now is     2619.9 secs

     total energy              =    -820.23165093 Ry
     Harris-Foulkes estimate   =    -820.23423147 Ry
     estimated scf accuracy    <       0.01591122 Ry

     iteration # 23     ecut=    50.00 Ry     beta= 0.60
     Davidson diagonalization with overlap
     c_bands:  1 eigenvalues not converged
     c_bands:  1 eigenvalues not converged
     ethr =  1.83E-05,  avg # of iterations =  7.2

     total cpu time spent up to now is     2774.2 secs

     total energy              =    -820.23337485 Ry
     Harris-Foulkes estimate   =    -820.23429698 Ry
     estimated scf accuracy    <       0.00698295 Ry

     iteration # 24     ecut=    50.00 Ry     beta= 0.60
     Davidson diagonalization with overlap
     c_bands:  1 eigenvalues not converged
     c_bands:  2 eigenvalues not converged
     c_bands:  1 eigenvalues not converged
     c_bands:  1 eigenvalues not converged
     c_bands:  1 eigenvalues not converged
     ethr =  8.03E-06,  avg # of iterations =  4.5

     total cpu time spent up to now is     2895.5 secs

     total energy              =    -820.23346028 Ry
     Harris-Foulkes estimate   =    -820.23441898 Ry
     estimated scf accuracy    <       0.00727307 Ry

     iteration # 25     ecut=    50.00 Ry     beta= 0.60
     Davidson diagonalization with overlap
     ethr =  8.03E-06,  avg # of iterations =  1.0

     total cpu time spent up to now is     2988.2 secs

     total energy              =    -820.23380626 Ry
     Harris-Foulkes estimate   =    -820.23388685 Ry
     estimated scf accuracy    <       0.00054143 Ry

     iteration # 26     ecut=    50.00 Ry     beta= 0.60
     Davidson diagonalization with overlap
     c_bands:  1 eigenvalues not converged
     ethr =  6.22E-07,  avg # of iterations =  7.3

     total cpu time spent up to now is     3170.5 secs

     total energy              =    -820.23376878 Ry
     Harris-Foulkes estimate   =    -820.23414937 Ry
     estimated scf accuracy    <       0.00452585 Ry

     iteration # 27     ecut=    50.00 Ry     beta= 0.60
     Davidson diagonalization with overlap
     ethr =  6.22E-07,  avg # of iterations =  4.9

     total cpu time spent up to now is     3304.2 secs

     total energy              =    -820.23393139 Ry
     Harris-Foulkes estimate   =    -820.23401152 Ry
     estimated scf accuracy    <       0.00086603 Ry

     iteration # 28     ecut=    50.00 Ry     beta= 0.60
     Davidson diagonalization with overlap
     ethr =  6.22E-07,  avg # of iterations =  1.0

     total cpu time spent up to now is     3396.7 secs

     total energy              =    -820.23394702 Ry
     Harris-Foulkes estimate   =    -820.23396811 Ry
     estimated scf accuracy    <       0.00028903 Ry

     iteration # 29     ecut=    50.00 Ry     beta= 0.60
     Davidson diagonalization with overlap
     ethr =  3.32E-07,  avg # of iterations =  2.3

     total cpu time spent up to now is     3497.8 secs

     total energy              =    -820.23395110 Ry
     Harris-Foulkes estimate   =    -820.23396338 Ry
     estimated scf accuracy    <       0.00011329 Ry

     iteration # 30     ecut=    50.00 Ry     beta= 0.60
     Davidson diagonalization with overlap
     ethr =  1.30E-07,  avg # of iterations =  3.6

     total cpu time spent up to now is     3616.4 secs

     total energy              =    -820.23396153 Ry
     Harris-Foulkes estimate   =    -820.23396446 Ry
     estimated scf accuracy    <       0.00002041 Ry

     iteration # 31     ecut=    50.00 Ry     beta= 0.60
     Davidson diagonalization with overlap
     ethr =  2.35E-08,  avg # of iterations =  3.6

     total cpu time spent up to now is     3742.4 secs

     total energy              =    -820.23396369 Ry
     Harris-Foulkes estimate   =    -820.23396539 Ry
     estimated scf accuracy    <       0.00001444 Ry

     iteration # 32     ecut=    50.00 Ry     beta= 0.60
     Davidson diagonalization with overlap
     ethr =  1.66E-08,  avg # of iterations =  1.9

     total cpu time spent up to now is     3841.2 secs

     total energy              =    -820.23396436 Ry
     Harris-Foulkes estimate   =    -820.23396495 Ry
     estimated scf accuracy    <       0.00000525 Ry

     iteration # 33     ecut=    50.00 Ry     beta= 0.60
     Davidson diagonalization with overlap
     ethr =  6.03E-09,  avg # of iterations =  1.8

     total cpu time spent up to now is     3938.8 secs

     total energy              =    -820.23396449 Ry
     Harris-Foulkes estimate   =    -820.23396463 Ry
     estimated scf accuracy    <       0.00000104 Ry

     iteration # 34     ecut=    50.00 Ry     beta= 0.60
     Davidson diagonalization with overlap
     ethr =  1.19E-09,  avg # of iterations =  4.0

     total cpu time spent up to now is     4071.8 secs

     total energy              =    -820.23396463 Ry
     Harris-Foulkes estimate   =    -820.23396468 Ry
     estimated scf accuracy    <       0.00000054 Ry

     iteration # 35     ecut=    50.00 Ry     beta= 0.60
     Davidson diagonalization with overlap
     ethr =  6.21E-10,  avg # of iterations =  1.0

     total cpu time spent up to now is     4164.3 secs

     total energy              =    -820.23396465 Ry
     Harris-Foulkes estimate   =    -820.23396466 Ry
     estimated scf accuracy    <       0.00000007 Ry

     iteration # 36     ecut=    50.00 Ry     beta= 0.60
     Davidson diagonalization with overlap
     ethr =  8.41E-11,  avg # of iterations =  4.0

     total cpu time spent up to now is     4300.9 secs

     total energy              =    -820.23396465 Ry
     Harris-Foulkes estimate   =    -820.23396466 Ry
     estimated scf accuracy    <       0.00000012 Ry

     iteration # 37     ecut=    50.00 Ry     beta= 0.60
     Davidson diagonalization with overlap
     ethr =  8.41E-11,  avg # of iterations =  1.0

     total cpu time spent up to now is     4393.5 secs

     total energy              =    -820.23396466 Ry
     Harris-Foulkes estimate   =    -820.23396466 Ry
     estimated scf accuracy    <       0.00000001 Ry

     iteration # 38     ecut=    50.00 Ry     beta= 0.60
     Davidson diagonalization with overlap
     ethr =  1.59E-11,  avg # of iterations =  4.0

     total cpu time spent up to now is     4523.9 secs

     total energy              =    -820.23396466 Ry
     Harris-Foulkes estimate   =    -820.23396466 Ry
     estimated scf accuracy    <          8.1E-09 Ry

     iteration # 39     ecut=    50.00 Ry     beta= 0.60
     Davidson diagonalization with overlap
     ethr =  9.32E-12,  avg # of iterations =  2.9

     total cpu time spent up to now is     4627.6 secs

     total energy              =    -820.23396466 Ry
     Harris-Foulkes estimate   =    -820.23396466 Ry
     estimated scf accuracy    <       0.00000002 Ry

     iteration # 40     ecut=    50.00 Ry     beta= 0.60
     Davidson diagonalization with overlap
     ethr =  9.32E-12,  avg # of iterations =  1.1

     total cpu time spent up to now is     4720.2 secs

     total energy              =    -820.23396466 Ry
     Harris-Foulkes estimate   =    -820.23396466 Ry
     estimated scf accuracy    <          3.0E-09 Ry

     iteration # 41     ecut=    50.00 Ry     beta= 0.60
     Davidson diagonalization with overlap
     ethr =  3.41E-12,  avg # of iterations =  2.7

     total cpu time spent up to now is     4823.0 secs

     total energy              =    -820.23396466 Ry
     Harris-Foulkes estimate   =    -820.23396466 Ry
     estimated scf accuracy    <          7.4E-10 Ry

     iteration # 42     ecut=    50.00 Ry     beta= 0.60
     Davidson diagonalization with overlap
     ethr =  8.46E-13,  avg # of iterations =  3.9

     total cpu time spent up to now is     4949.3 secs

     total energy              =    -820.23396466 Ry
     Harris-Foulkes estimate   =    -820.23396466 Ry
     estimated scf accuracy    <          1.6E-10 Ry

     iteration # 43     ecut=    50.00 Ry     beta= 0.60
     Davidson diagonalization with overlap
     ethr =  1.79E-13,  avg # of iterations =  2.0

     total cpu time spent up to now is     5049.3 secs

     End of self-consistent calculation

     Number of k-points >= 100: set verbosity='high' to print the bands.

     the Fermi energy is    11.8585 ev

!    total energy              =    -820.23396466 Ry
     Harris-Foulkes estimate   =    -820.23396466 Ry
     estimated scf accuracy    <          2.4E-11 Ry

     The total energy is the sum of the following terms:

     one-electron contribution =    -277.44983418 Ry
     hartree contribution      =     161.95210475 Ry
     xc contribution           =    -112.24163562 Ry
     ewald contribution        =    -592.49318165 Ry
     smearing contrib. (-TS)   =      -0.00141797 Ry

     convergence has been achieved in  43 iterations

     Forces acting on atoms (cartesian axes, Ry/au):

     atom    1 type  2   force =    -0.00489383   -0.00447656   -0.01323494
     atom    2 type  2   force =    -0.00403203    0.00448674    0.00407153
     atom    3 type  2   force =     0.00403171   -0.00448627   -0.00407133
     atom    4 type  2   force =     0.00489318    0.00447883    0.01323660
     atom    5 type  1   force =     0.00000072   -0.00000130   -0.00000052
     atom    6 type  1   force =    -0.00391668   -0.00299257    0.01200715
     atom    7 type  1   force =     0.00391694    0.00299114   -0.01200849

     Total force =     0.029686     Total SCF correction =     0.000015


     Computing stress (Cartesian axis) and pressure

          total   stress  (Ry/bohr**3)                   (kbar)     P= -195.04
  -0.00131342   0.00000661   0.00000978       -193.21      0.97      1.44
   0.00000661  -0.00133025   0.00002040          0.97   -195.69      3.00
   0.00000978   0.00002040  -0.00133391          1.44      3.00   -196.22


     BFGS Geometry Optimization

     number of scf cycles    =   1
     number of bfgs steps    =   0

     enthalpy new            =    -820.2339646587 Ry

     new trust radius        =       0.2137348845 bohr
     new conv_thr            =            1.0E-10 Ry

     new unit-cell volume =    927.93248 a.u.^3 (   137.50540 Ang^3 )
     density =      5.67806 g/cm^3

CELL_PARAMETERS (alat=  1.88972599)
   1.698143650  -5.101097104  -5.100475726
  -5.100475356   5.096928914  -1.698005187
   5.102498200   1.703128099   5.100402413

ATOMIC_POSITIONS (angstrom)
Ti       1.697659719   1.696665792  -1.704850417
Ti      -0.001481279   3.401427876   0.003876797
Ti       3.402674142  -0.001714427  -0.001223255
Ti       1.703532975   1.703048579   1.707504701
Nb       1.699585459  -1.700172567  -1.699872162
Nb      -0.002863312  -0.003321433  -3.392669731
Nb      -1.698441730   1.699905812  -1.705079937


     NEW-OLD atomic charge density approx. for the potential
     extrapolated charge   78.16843, renormalised to   87.00000

     total cpu time spent up to now is     5070.7 secs

     Self-consistent Calculation

     iteration #  1     ecut=    50.00 Ry     beta= 0.60
     Davidson diagonalization with overlap
     c_bands:  1 eigenvalues not converged
     c_bands:  1 eigenvalues not converged
     c_bands:  1 eigenvalues not converged
     c_bands:  1 eigenvalues not converged
     c_bands:  1 eigenvalues not converged
     c_bands:  1 eigenvalues not converged
     c_bands:  1 eigenvalues not converged
     c_bands:  1 eigenvalues not converged
     c_bands:  1 eigenvalues not converged
     c_bands:  1 eigenvalues not converged
     c_bands:  1 eigenvalues not converged
     c_bands:  1 eigenvalues not converged
     c_bands:  1 eigenvalues not converged
     c_bands:  1 eigenvalues not converged
     c_bands:  1 eigenvalues not converged
     c_bands:  1 eigenvalues not converged
     c_bands:  1 eigenvalues not converged
     c_bands:  1 eigenvalues not converged
     c_bands:  1 eigenvalues not converged
     c_bands:  2 eigenvalues not converged
     c_bands:  1 eigenvalues not converged
     c_bands:  2 eigenvalues not converged
     c_bands:  1 eigenvalues not converged
     c_bands:  1 eigenvalues not converged
     c_bands:  1 eigenvalues not converged
     c_bands:  1 eigenvalues not converged
     c_bands:  1 eigenvalues not converged
     c_bands:  1 eigenvalues not converged
     c_bands:  1 eigenvalues not converged
     c_bands:  1 eigenvalues not converged
     c_bands:  4 eigenvalues not converged
     c_bands:  1 eigenvalues not converged
     c_bands:  1 eigenvalues not converged
     c_bands:  1 eigenvalues not converged
     c_bands:  1 eigenvalues not converged
     c_bands:  1 eigenvalues not converged
     c_bands:  1 eigenvalues not converged
     c_bands:  1 eigenvalues not converged
     c_bands:  1 eigenvalues not converged
     c_bands:  3 eigenvalues not converged
     c_bands:  1 eigenvalues not converged
     c_bands:  2 eigenvalues not converged
     c_bands:  1 eigenvalues not converged
     c_bands:  1 eigenvalues not converged
     c_bands:  1 eigenvalues not converged
     c_bands:  2 eigenvalues not converged
     c_bands:  1 eigenvalues not converged
     c_bands:  1 eigenvalues not converged
     c_bands:  1 eigenvalues not converged
     c_bands:  1 eigenvalues not converged
     c_bands:  1 eigenvalues not converged
     c_bands:  1 eigenvalues not converged
     c_bands:  1 eigenvalues not converged
     c_bands:  1 eigenvalues not converged
     c_bands:  1 eigenvalues not converged
     c_bands:  1 eigenvalues not converged
     c_bands:  1 eigenvalues not converged
     ethr =  1.00E-06,  avg # of iterations = 16.2

     total cpu time spent up to now is     5512.9 secs

     total energy              =    -791.48248144 Ry
     Harris-Foulkes estimate   =    -840.21827177 Ry
     estimated scf accuracy    <      31.34338536 Ry

     iteration #  2     ecut=    50.00 Ry     beta= 0.60
     Davidson diagonalization with overlap
     ethr =  1.00E-02,  avg # of iterations =  6.2

     total cpu time spent up to now is     5725.5 secs

     total energy              =    -809.38653548 Ry
     Harris-Foulkes estimate   =    -865.90500022 Ry
     estimated scf accuracy    <     193.97354452 Ry

     iteration #  3     ecut=    50.00 Ry     beta= 0.60
     Davidson diagonalization with overlap
     ethr =  1.00E-02,  avg # of iterations =  4.6

     total cpu time spent up to now is     5909.9 secs

     total energy              =    -822.31543844 Ry
     Harris-Foulkes estimate   =    -826.34140927 Ry
     estimated scf accuracy    <      19.73809061 Ry

     iteration #  4     ecut=    50.00 Ry     beta= 0.60
     Davidson diagonalization with overlap
     ethr =  1.00E-02,  avg # of iterations =  1.0

     total cpu time spent up to now is     6002.5 secs

     total energy              =    -821.44298837 Ry
     Harris-Foulkes estimate   =    -822.66186383 Ry
     estimated scf accuracy    <      13.78921121 Ry

     iteration #  5     ecut=    50.00 Ry     beta= 0.60
     Davidson diagonalization with overlap
     ethr =  1.00E-02,  avg # of iterations =  1.0

     total cpu time spent up to now is     6095.4 secs

     total energy              =    -820.59350951 Ry
     Harris-Foulkes estimate   =    -821.68440250 Ry
     estimated scf accuracy    <       8.82887828 Ry

     iteration #  6     ecut=    50.00 Ry     beta= 0.60
     Davidson diagonalization with overlap
     ethr =  1.00E-02,  avg # of iterations =  1.0

     total cpu time spent up to now is     6188.2 secs

     total energy              =    -820.56582543 Ry
     Harris-Foulkes estimate   =    -820.78441793 Ry
     estimated scf accuracy    <       4.61972068 Ry

     iteration #  7     ecut=    50.00 Ry     beta= 0.60
     Davidson diagonalization with overlap
     ethr =  5.31E-03,  avg # of iterations =  3.0

     total cpu time spent up to now is     6294.3 secs

     total energy              =    -820.95982596 Ry
     Harris-Foulkes estimate   =    -820.72671645 Ry
     estimated scf accuracy    <       3.14544023 Ry

     iteration #  8     ecut=    50.00 Ry     beta= 0.60
     Davidson diagonalization with overlap
     ethr =  3.62E-03,  avg # of iterations =  1.0

     total cpu time spent up to now is     6387.3 secs

     total energy              =    -820.51231368 Ry
     Harris-Foulkes estimate   =    -821.03586469 Ry
     estimated scf accuracy    <       4.94701555 Ry

     iteration #  9     ecut=    50.00 Ry     beta= 0.60
     Davidson diagonalization with overlap
     ethr =  3.62E-03,  avg # of iterations =  1.1

     total cpu time spent up to now is     6480.2 secs

     total energy              =    -820.46973205 Ry
     Harris-Foulkes estimate   =    -820.58886677 Ry
     estimated scf accuracy    <       2.16227982 Ry

     iteration # 10     ecut=    50.00 Ry     beta= 0.60
     Davidson diagonalization with overlap
     ethr =  2.49E-03,  avg # of iterations =  1.1

     total cpu time spent up to now is     6573.4 secs

     total energy              =    -819.93021151 Ry
     Harris-Foulkes estimate   =    -820.49377356 Ry
     estimated scf accuracy    <       1.57162415 Ry

     iteration # 11     ecut=    50.00 Ry     beta= 0.60
     Davidson diagonalization with overlap
     ethr =  1.81E-03,  avg # of iterations =  5.2

     total cpu time spent up to now is     6737.9 secs

     total energy              =    -820.32759826 Ry
     Harris-Foulkes estimate   =    -820.53498643 Ry
     estimated scf accuracy    <       3.65040357 Ry

     iteration # 12     ecut=    50.00 Ry     beta= 0.60
     Davidson diagonalization with overlap
     ethr =  1.81E-03,  avg # of iterations =  1.0

     total cpu time spent up to now is     6831.9 secs

     total energy              =    -820.30830624 Ry
     Harris-Foulkes estimate   =    -820.37326524 Ry
     estimated scf accuracy    <       1.33346015 Ry

     iteration # 13     ecut=    50.00 Ry     beta= 0.60
     Davidson diagonalization with overlap
     ethr =  1.53E-03,  avg # of iterations =  1.3

     total cpu time spent up to now is     6926.6 secs

     total energy              =    -820.41080902 Ry
     Harris-Foulkes estimate   =    -820.35048057 Ry
     estimated scf accuracy    <       0.68624478 Ry

     iteration # 14     ecut=    50.00 Ry     beta= 0.60
     Davidson diagonalization with overlap
     ethr =  7.89E-04,  avg # of iterations =  1.0

     total cpu time spent up to now is     7019.2 secs

     total energy              =    -820.21129065 Ry
     Harris-Foulkes estimate   =    -820.43068238 Ry
     estimated scf accuracy    <       1.79072470 Ry

     iteration # 15     ecut=    50.00 Ry     beta= 0.60
     Davidson diagonalization with overlap
     ethr =  7.89E-04,  avg # of iterations =  3.8

     total cpu time spent up to now is     7143.9 secs

     total energy              =    -820.33095630 Ry
     Harris-Foulkes estimate   =    -820.35745840 Ry
     estimated scf accuracy    <       0.25179394 Ry

     iteration # 16     ecut=    50.00 Ry     beta= 0.60
     Davidson diagonalization with overlap
     ethr =  2.89E-04,  avg # of iterations =  2.2

     total cpu time spent up to now is     7244.6 secs

     total energy              =    -820.34113977 Ry
     Harris-Foulkes estimate   =    -820.34377759 Ry
     estimated scf accuracy    <       0.06571601 Ry

     iteration # 17     ecut=    50.00 Ry     beta= 0.60
     Davidson diagonalization with overlap
     c_bands:  1 eigenvalues not converged
     c_bands:  1 eigenvalues not converged
     ethr =  7.55E-05,  avg # of iterations =  5.4

     total cpu time spent up to now is     7369.8 secs

     total energy              =    -820.34344674 Ry
     Harris-Foulkes estimate   =    -820.34524270 Ry
     estimated scf accuracy    <       0.05211159 Ry

     iteration # 18     ecut=    50.00 Ry     beta= 0.60
     Davidson diagonalization with overlap
     ethr =  5.99E-05,  avg # of iterations =  1.2

     total cpu time spent up to now is     7463.7 secs

     total energy              =    -820.34246945 Ry
     Harris-Foulkes estimate   =    -820.34437816 Ry
     estimated scf accuracy    <       0.03141544 Ry

     iteration # 19     ecut=    50.00 Ry     beta= 0.60
     Davidson diagonalization with overlap
     ethr =  3.61E-05,  avg # of iterations =  2.5

     total cpu time spent up to now is     7566.5 secs

     total energy              =    -820.34298828 Ry
     Harris-Foulkes estimate   =    -820.34361245 Ry
     estimated scf accuracy    <       0.00743045 Ry

     iteration # 20     ecut=    50.00 Ry     beta= 0.60
     Davidson diagonalization with overlap
     ethr =  8.54E-06,  avg # of iterations =  7.8

     total cpu time spent up to now is     7737.7 secs

     total energy              =    -820.34411369 Ry
     Harris-Foulkes estimate   =    -820.34417307 Ry
     estimated scf accuracy    <       0.00055561 Ry

     iteration # 21     ecut=    50.00 Ry     beta= 0.60
     Davidson diagonalization with overlap
     c_bands:  1 eigenvalues not converged
     c_bands:  1 eigenvalues not converged
     c_bands:  1 eigenvalues not converged
     c_bands:  1 eigenvalues not converged
     ethr =  6.39E-07,  avg # of iterations =  4.2

     total cpu time spent up to now is     7867.2 secs

     total energy              =    -820.34409405 Ry
     Harris-Foulkes estimate   =    -820.34423032 Ry
     estimated scf accuracy    <       0.00105605 Ry

     iteration # 22     ecut=    50.00 Ry     beta= 0.60
     Davidson diagonalization with overlap
     ethr =  6.39E-07,  avg # of iterations =  2.1

     total cpu time spent up to now is     7967.4 secs

     total energy              =    -820.34415404 Ry
     Harris-Foulkes estimate   =    -820.34416046 Ry
     estimated scf accuracy    <       0.00003964 Ry

     iteration # 23     ecut=    50.00 Ry     beta= 0.60
     Davidson diagonalization with overlap
     ethr =  4.56E-08,  avg # of iterations =  4.9

     total cpu time spent up to now is     8121.6 secs

     total energy              =    -820.34416783 Ry
     Harris-Foulkes estimate   =    -820.34417798 Ry
     estimated scf accuracy    <       0.00015289 Ry

     iteration # 24     ecut=    50.00 Ry     beta= 0.60
     Davidson diagonalization with overlap
     ethr =  4.56E-08,  avg # of iterations =  1.0

     total cpu time spent up to now is     8214.0 secs

     total energy              =    -820.34416295 Ry
     Harris-Foulkes estimate   =    -820.34417010 Ry
     estimated scf accuracy    <       0.00006770 Ry

     iteration # 25     ecut=    50.00 Ry     beta= 0.60
     Davidson diagonalization with overlap
     ethr =  4.56E-08,  avg # of iterations =  3.0

     total cpu time spent up to now is     8331.0 secs

     total energy              =    -820.34416771 Ry
     Harris-Foulkes estimate   =    -820.34416825 Ry
     estimated scf accuracy    <       0.00000391 Ry

     iteration # 26     ecut=    50.00 Ry     beta= 0.60
     Davidson diagonalization with overlap
     ethr =  4.49E-09,  avg # of iterations =  3.8

     total cpu time spent up to now is     8454.8 secs

     total energy              =    -820.34416808 Ry
     Harris-Foulkes estimate   =    -820.34416831 Ry
     estimated scf accuracy    <       0.00000224 Ry

     iteration # 27     ecut=    50.00 Ry     beta= 0.60
     Davidson diagonalization with overlap
     ethr =  2.58E-09,  avg # of iterations =  1.0

     total cpu time spent up to now is     8547.3 secs

     total energy              =    -820.34416816 Ry
     Harris-Foulkes estimate   =    -820.34416820 Ry
     estimated scf accuracy    <       0.00000014 Ry

     iteration # 28     ecut=    50.00 Ry     beta= 0.60
     Davidson diagonalization with overlap
     ethr =  1.56E-10,  avg # of iterations =  4.7

     total cpu time spent up to now is     8698.7 secs

     total energy              =    -820.34416815 Ry
     Harris-Foulkes estimate   =    -820.34416830 Ry
     estimated scf accuracy    <       0.00000152 Ry

     iteration # 29     ecut=    50.00 Ry     beta= 0.60
     Davidson diagonalization with overlap
     ethr =  1.56E-10,  avg # of iterations =  4.0

     total cpu time spent up to now is     8836.7 secs

     total energy              =    -820.34416822 Ry
     Harris-Foulkes estimate   =    -820.34416823 Ry
     estimated scf accuracy    <       0.00000013 Ry

     iteration # 30     ecut=    50.00 Ry     beta= 0.60
     Davidson diagonalization with overlap
     ethr =  1.45E-10,  avg # of iterations =  1.7

     total cpu time spent up to now is     8933.0 secs

     total energy              =    -820.34416822 Ry
     Harris-Foulkes estimate   =    -820.34416823 Ry
     estimated scf accuracy    <       0.00000011 Ry

     iteration # 31     ecut=    50.00 Ry     beta= 0.60
     Davidson diagonalization with overlap
     ethr =  1.23E-10,  avg # of iterations =  1.1

     total cpu time spent up to now is     9026.3 secs

     total energy              =    -820.34416823 Ry
     Harris-Foulkes estimate   =    -820.34416823 Ry
     estimated scf accuracy    <       0.00000002 Ry

     iteration # 32     ecut=    50.00 Ry     beta= 0.60
     Davidson diagonalization with overlap
     ethr =  1.79E-11,  avg # of iterations =  4.0

     total cpu time spent up to now is     9155.3 secs

     total energy              =    -820.34416823 Ry
     Harris-Foulkes estimate   =    -820.34416823 Ry
     estimated scf accuracy    <          8.5E-09 Ry

     iteration # 33     ecut=    50.00 Ry     beta= 0.60
     Davidson diagonalization with overlap
     ethr =  9.77E-12,  avg # of iterations =  1.0

     total cpu time spent up to now is     9247.8 secs

     total energy              =    -820.34416823 Ry
     Harris-Foulkes estimate   =    -820.34416823 Ry
     estimated scf accuracy    <          1.7E-09 Ry

     iteration # 34     ecut=    50.00 Ry     beta= 0.60
     Davidson diagonalization with overlap
     ethr =  1.98E-12,  avg # of iterations =  3.2

     total cpu time spent up to now is     9363.6 secs

     End of self-consistent calculation

     Number of k-points >= 100: set verbosity='high' to print the bands.

     the Fermi energy is    13.4214 ev

!    total energy              =    -820.34416823 Ry
     Harris-Foulkes estimate   =    -820.34416823 Ry
     estimated scf accuracy    <          6.4E-11 Ry

     The total energy is the sum of the following terms:

     one-electron contribution =    -247.46333142 Ry
     hartree contribution      =     152.63326230 Ry
     xc contribution           =    -112.78231463 Ry
     ewald contribution        =    -612.73020249 Ry
     smearing contrib. (-TS)   =      -0.00158199 Ry

     convergence has been achieved in  34 iterations

     Forces acting on atoms (cartesian axes, Ry/au):

     atom    1 type  2   force =    -0.00215242   -0.00213019   -0.00945287
     atom    2 type  2   force =    -0.00325234    0.00198071    0.00321964
     atom    3 type  2   force =     0.00325327   -0.00197945   -0.00321705
     atom    4 type  2   force =     0.00215168    0.00213027    0.00945206
     atom    5 type  1   force =    -0.00000031   -0.00000059   -0.00000096
     atom    6 type  1   force =    -0.00611182   -0.00484560    0.00925129
     atom    7 type  1   force =     0.00611193    0.00484484   -0.00925212

     Total force =     0.023229     Total SCF correction =     0.000030


     Computing stress (Cartesian axis) and pressure

          total   stress  (Ry/bohr**3)                   (kbar)     P= -124.24
  -0.00083530   0.00001030   0.00000229       -122.88      1.52      0.34
   0.00001030  -0.00085140   0.00000923          1.52   -125.25      1.36
   0.00000229   0.00000923  -0.00084704          0.34      1.36   -124.60


     number of scf cycles    =   2
     number of bfgs steps    =   1

     enthalpy old            =    -820.2339646587 Ry
     enthalpy new            =    -820.3441682279 Ry

     CASE: enthalpy_new < enthalpy_old

     new trust radius        =       0.3112597712 bohr
     new conv_thr            =            1.0E-10 Ry

     new unit-cell volume =    793.92298 a.u.^3 (   117.64725 Ang^3 )
     density =      6.63648 g/cm^3

CELL_PARAMETERS (alat=  1.88972599)
   1.609048222  -4.842546059  -4.844039332
  -4.842120463   4.832298927  -1.609426290
   4.848908648   1.622465760   4.843011762

ATOMIC_POSITIONS (angstrom)
Ti       1.610929152   1.607532564  -1.627896385
Ti      -0.003036853   3.229987477   0.009497354
Ti       3.236080180  -0.001779315  -0.004354505
Ti       1.622112056   1.620675093   1.633035983
Nb       1.613127093  -1.613280434  -1.614224239
Nb      -0.010394705  -0.010842516  -3.209463376
Nb      -1.605471296   1.616581642  -1.628410274


     NEW-OLD atomic charge density approx. for the potential
     extrapolated charge   72.99151, renormalised to   87.00000

     total cpu time spent up to now is     9385.5 secs

     Self-consistent Calculation

     iteration #  1     ecut=    50.00 Ry     beta= 0.60
     Davidson diagonalization with overlap
     ethr =  1.00E-06,  avg # of iterations = 15.5

     total cpu time spent up to now is     9848.0 secs

     total energy              =    -755.84574795 Ry
     Harris-Foulkes estimate   =    -848.39800831 Ry
     estimated scf accuracy    <      70.95479715 Ry

     iteration #  2     ecut=    50.00 Ry     beta= 0.60
     Davidson diagonalization with overlap
     ethr =  1.00E-02,  avg # of iterations =  7.9

     total cpu time spent up to now is    10106.1 secs

     total energy              =    -772.56210493 Ry
     Harris-Foulkes estimate   =    -924.46729355 Ry
     estimated scf accuracy    <     566.24762007 Ry

     iteration #  3     ecut=    50.00 Ry     beta= 0.60
     Davidson diagonalization with overlap
     ethr =  1.00E-02,  avg # of iterations =  4.7

     total cpu time spent up to now is    10299.3 secs

     total energy              =    -823.60967657 Ry
     Harris-Foulkes estimate   =    -830.35454055 Ry
     estimated scf accuracy    <      33.28217938 Ry

     iteration #  4     ecut=    50.00 Ry     beta= 0.60
     Davidson diagonalization with overlap
     ethr =  1.00E-02,  avg # of iterations =  2.5

     total cpu time spent up to now is    10411.0 secs

     total energy              =    -822.59331417 Ry
     Harris-Foulkes estimate   =    -824.94699253 Ry
     estimated scf accuracy    <      20.95277555 Ry

     iteration #  5     ecut=    50.00 Ry     beta= 0.60
     Davidson diagonalization with overlap
     ethr =  1.00E-02,  avg # of iterations =  1.0

     total cpu time spent up to now is    10503.7 secs

     total energy              =    -821.83031673 Ry
     Harris-Foulkes estimate   =    -822.96495372 Ry
     estimated scf accuracy    <      13.51576100 Ry

     iteration #  6     ecut=    50.00 Ry     beta= 0.60
     Davidson diagonalization with overlap
     ethr =  1.00E-02,  avg # of iterations =  1.0

     total cpu time spent up to now is    10596.4 secs

     total energy              =    -821.08143502 Ry
     Harris-Foulkes estimate   =    -822.00053377 Ry
     estimated scf accuracy    <       9.21187584 Ry

     iteration #  7     ecut=    50.00 Ry     beta= 0.60
     Davidson diagonalization with overlap
     ethr =  1.00E-02,  avg # of iterations =  1.0

     total cpu time spent up to now is    10688.9 secs

     total energy              =    -821.07436695 Ry
     Harris-Foulkes estimate   =    -821.20729710 Ry
     estimated scf accuracy    <       5.53443967 Ry

     iteration #  8     ecut=    50.00 Ry     beta= 0.60
     Davidson diagonalization with overlap
     ethr =  6.36E-03,  avg # of iterations =  1.0

     total cpu time spent up to now is    10781.7 secs

     total energy              =    -820.13997860 Ry
     Harris-Foulkes estimate   =    -821.12452732 Ry
     estimated scf accuracy    <       5.41282611 Ry

     iteration #  9     ecut=    50.00 Ry     beta= 0.60
     Davidson diagonalization with overlap
     ethr =  6.22E-03,  avg # of iterations =  2.2

     total cpu time spent up to now is    10881.4 secs

     total energy              =    -820.19047867 Ry
     Harris-Foulkes estimate   =    -820.35155495 Ry
     estimated scf accuracy    <       1.20351672 Ry

     iteration # 10     ecut=    50.00 Ry     beta= 0.60
     Davidson diagonalization with overlap
     ethr =  1.38E-03,  avg # of iterations =  5.1

     total cpu time spent up to now is    11038.7 secs

     total energy              =    -820.43710341 Ry
     Harris-Foulkes estimate   =    -820.42844108 Ry
     estimated scf accuracy    <       0.17727669 Ry

     iteration # 11     ecut=    50.00 Ry     beta= 0.60
     Davidson diagonalization with overlap
     ethr =  2.04E-04,  avg # of iterations =  5.1

     total cpu time spent up to now is    11240.0 secs

     total energy              =    -820.65787654 Ry
     Harris-Foulkes estimate   =    -821.13852367 Ry
     estimated scf accuracy    <      12.01679093 Ry

     iteration # 12     ecut=    50.00 Ry     beta= 0.60
     Davidson diagonalization with overlap
     ethr =  2.04E-04,  avg # of iterations =  4.3

     total cpu time spent up to now is    11382.5 secs

     total energy              =    -820.58323486 Ry
     Harris-Foulkes estimate   =    -820.73475338 Ry
     estimated scf accuracy    <       5.37242916 Ry

     iteration # 13     ecut=    50.00 Ry     beta= 0.60
     Davidson diagonalization with overlap
     ethr =  2.04E-04,  avg # of iterations =  1.2

     total cpu time spent up to now is    11476.3 secs

     total energy              =    -820.36013066 Ry
     Harris-Foulkes estimate   =    -820.59908192 Ry
     estimated scf accuracy    <       3.52667842 Ry

     iteration # 14     ecut=    50.00 Ry     beta= 0.60
     Davidson diagonalization with overlap
     ethr =  2.04E-04,  avg # of iterations =  4.7

     total cpu time spent up to now is    11630.7 secs

     total energy              =    -820.38577905 Ry
     Harris-Foulkes estimate   =    -820.43732262 Ry
     estimated scf accuracy    <       0.68956687 Ry

     iteration # 15     ecut=    50.00 Ry     beta= 0.60
     Davidson diagonalization with overlap
     ethr =  2.04E-04,  avg # of iterations =  1.0

     total cpu time spent up to now is    11723.2 secs

     total energy              =    -820.39058285 Ry
     Harris-Foulkes estimate   =    -820.39623625 Ry
     estimated scf accuracy    <       0.26698510 Ry

     iteration # 16     ecut=    50.00 Ry     beta= 0.60
     Davidson diagonalization with overlap
     ethr =  2.04E-04,  avg # of iterations =  1.0

     total cpu time spent up to now is    11816.0 secs

     total energy              =    -820.40186291 Ry
     Harris-Foulkes estimate   =    -820.39341866 Ry
     estimated scf accuracy    <       0.23280977 Ry

     iteration # 17     ecut=    50.00 Ry     beta= 0.60
     Davidson diagonalization with overlap
     ethr =  2.04E-04,  avg # of iterations =  1.0

     total cpu time spent up to now is    11908.3 secs

     total energy              =    -820.37730541 Ry
     Harris-Foulkes estimate   =    -820.40476331 Ry
     estimated scf accuracy    <       0.32336598 Ry

     iteration # 18     ecut=    50.00 Ry     beta= 0.60
     Davidson diagonalization with overlap
     ethr =  2.04E-04,  avg # of iterations =  1.3

     total cpu time spent up to now is    12002.5 secs

     total energy              =    -820.37654666 Ry
     Harris-Foulkes estimate   =    -820.38474452 Ry
     estimated scf accuracy    <       0.09014353 Ry

     iteration # 19     ecut=    50.00 Ry     beta= 0.60
     Davidson diagonalization with overlap
     ethr =  1.04E-04,  avg # of iterations =  3.1

     total cpu time spent up to now is    12116.3 secs

     total energy              =    -820.38118993 Ry
     Harris-Foulkes estimate   =    -820.38330582 Ry
     estimated scf accuracy    <       0.01293842 Ry

     iteration # 20     ecut=    50.00 Ry     beta= 0.60
     Davidson diagonalization with overlap
     ethr =  1.49E-05,  avg # of iterations =  6.5

     total cpu time spent up to now is    12293.5 secs

     total energy              =    -820.38228700 Ry
     Harris-Foulkes estimate   =    -820.38548445 Ry
     estimated scf accuracy    <       0.02232679 Ry

     iteration # 21     ecut=    50.00 Ry     beta= 0.60
     Davidson diagonalization with overlap
     ethr =  1.49E-05,  avg # of iterations =  2.0

     total cpu time spent up to now is    12393.3 secs

     total energy              =    -820.38348157 Ry
     Harris-Foulkes estimate   =    -820.38366427 Ry
     estimated scf accuracy    <       0.00122839 Ry

     iteration # 22     ecut=    50.00 Ry     beta= 0.60
     Davidson diagonalization with overlap
     ethr =  1.41E-06,  avg # of iterations =  5.6

     total cpu time spent up to now is    12555.6 secs

     total energy              =    -820.38373023 Ry
     Harris-Foulkes estimate   =    -820.38390786 Ry
     estimated scf accuracy    <       0.00152808 Ry

     iteration # 23     ecut=    50.00 Ry     beta= 0.60
     Davidson diagonalization with overlap
     ethr =  1.41E-06,  avg # of iterations =  1.0

     total cpu time spent up to now is    12648.2 secs

     total energy              =    -820.38379087 Ry
     Harris-Foulkes estimate   =    -820.38381601 Ry
     estimated scf accuracy    <       0.00020113 Ry

     iteration # 24     ecut=    50.00 Ry     beta= 0.60
     Davidson diagonalization with overlap
     ethr =  2.31E-07,  avg # of iterations =  3.3

     total cpu time spent up to now is    12765.2 secs

     total energy              =    -820.38380160 Ry
     Harris-Foulkes estimate   =    -820.38381323 Ry
     estimated scf accuracy    <       0.00006003 Ry

     iteration # 25     ecut=    50.00 Ry     beta= 0.60
     Davidson diagonalization with overlap
     ethr =  6.90E-08,  avg # of iterations =  3.6

     total cpu time spent up to now is    12891.7 secs

     total energy              =    -820.38380387 Ry
     Harris-Foulkes estimate   =    -820.38381828 Ry
     estimated scf accuracy    <       0.00013999 Ry

     iteration # 26     ecut=    50.00 Ry     beta= 0.60
     Davidson diagonalization with overlap
     ethr =  6.90E-08,  avg # of iterations =  1.8

     total cpu time spent up to now is    12989.1 secs

     total energy              =    -820.38380900 Ry
     Harris-Foulkes estimate   =    -820.38381142 Ry
     estimated scf accuracy    <       0.00002179 Ry

     iteration # 27     ecut=    50.00 Ry     beta= 0.60
     Davidson diagonalization with overlap
     ethr =  2.50E-08,  avg # of iterations =  3.4

     total cpu time spent up to now is    13101.9 secs

     total energy              =    -820.38381082 Ry
     Harris-Foulkes estimate   =    -820.38381133 Ry
     estimated scf accuracy    <       0.00000260 Ry

     iteration # 28     ecut=    50.00 Ry     beta= 0.60
     Davidson diagonalization with overlap
     ethr =  2.98E-09,  avg # of iterations =  3.4

     total cpu time spent up to now is    13224.1 secs

     total energy              =    -820.38381115 Ry
     Harris-Foulkes estimate   =    -820.38381129 Ry
     estimated scf accuracy    <       0.00000066 Ry

     iteration # 29     ecut=    50.00 Ry     beta= 0.60
     Davidson diagonalization with overlap
     ethr =  7.55E-10,  avg # of iterations =  3.0

     total cpu time spent up to now is    13339.7 secs

     total energy              =    -820.38381122 Ry
     Harris-Foulkes estimate   =    -820.38381126 Ry
     estimated scf accuracy    <       0.00000028 Ry

     iteration # 30     ecut=    50.00 Ry     beta= 0.60
     Davidson diagonalization with overlap
     ethr =  3.22E-10,  avg # of iterations =  2.1

     total cpu time spent up to now is    13439.4 secs

     total energy              =    -820.38381124 Ry
     Harris-Foulkes estimate   =    -820.38381125 Ry
     estimated scf accuracy    <       0.00000005 Ry

     iteration # 31     ecut=    50.00 Ry     beta= 0.60
     Davidson diagonalization with overlap
     ethr =  5.32E-11,  avg # of iterations =  3.5

     total cpu time spent up to now is    13562.6 secs

     total energy              =    -820.38381124 Ry
     Harris-Foulkes estimate   =    -820.38381125 Ry
     estimated scf accuracy    <       0.00000002 Ry

     iteration # 32     ecut=    50.00 Ry     beta= 0.60
     Davidson diagonalization with overlap
     ethr =  2.11E-11,  avg # of iterations =  3.2

     total cpu time spent up to now is    13680.5 secs

     total energy              =    -820.38381125 Ry
     Harris-Foulkes estimate   =    -820.38381125 Ry
     estimated scf accuracy    <       0.00000003 Ry

     iteration # 33     ecut=    50.00 Ry     beta= 0.60
     Davidson diagonalization with overlap
     ethr =  2.11E-11,  avg # of iterations =  2.0

     total cpu time spent up to now is    13779.3 secs

     total energy              =    -820.38381125 Ry
     Harris-Foulkes estimate   =    -820.38381125 Ry
     estimated scf accuracy    <          1.1E-09 Ry

     iteration # 34     ecut=    50.00 Ry     beta= 0.60
     Davidson diagonalization with overlap
     ethr =  1.30E-12,  avg # of iterations =  4.0

     total cpu time spent up to now is    13916.1 secs

     total energy              =    -820.38381125 Ry
     Harris-Foulkes estimate   =    -820.38381125 Ry
     estimated scf accuracy    <          1.2E-09 Ry

     iteration # 35     ecut=    50.00 Ry     beta= 0.60
     Davidson diagonalization with overlap
     ethr =  1.30E-12,  avg # of iterations =  1.0

     total cpu time spent up to now is    14008.8 secs

     total energy              =    -820.38381125 Ry
     Harris-Foulkes estimate   =    -820.38381125 Ry
     estimated scf accuracy    <          5.0E-10 Ry

     iteration # 36     ecut=    50.00 Ry     beta= 0.60
     Davidson diagonalization with overlap
     ethr =  5.73E-13,  avg # of iterations =  3.2

     total cpu time spent up to now is    14126.6 secs

     total energy              =    -820.38381125 Ry
     Harris-Foulkes estimate   =    -820.38381125 Ry
     estimated scf accuracy    <          1.1E-09 Ry

     iteration # 37     ecut=    50.00 Ry     beta= 0.60
     Davidson diagonalization with overlap
     ethr =  5.73E-13,  avg # of iterations =  1.1

     total cpu time spent up to now is    14219.7 secs

     End of self-consistent calculation

     Number of k-points >= 100: set verbosity='high' to print the bands.

     the Fermi energy is    16.1334 ev

!    total energy              =    -820.38381125 Ry
     Harris-Foulkes estimate   =    -820.38381125 Ry
     estimated scf accuracy    <          9.7E-11 Ry

     The total energy is the sum of the following terms:

     one-electron contribution =    -200.01284182 Ry
     hartree contribution      =     138.68281884 Ry
     xc contribution           =    -113.76594093 Ry
     ewald contribution        =    -645.28596037 Ry
     smearing contrib. (-TS)   =      -0.00188696 Ry

     convergence has been achieved in  37 iterations

     Forces acting on atoms (cartesian axes, Ry/au):

     atom    1 type  2   force =     0.00463344    0.00410898    0.00167924
     atom    2 type  2   force =    -0.00105071   -0.00447805    0.00052412
     atom    3 type  2   force =     0.00104782    0.00447594   -0.00052884
     atom    4 type  2   force =    -0.00463153   -0.00410827   -0.00167672
     atom    5 type  1   force =     0.00000058    0.00000092    0.00000156
     atom    6 type  1   force =    -0.00984640   -0.00872240    0.00104462
     atom    7 type  1   force =     0.00984680    0.00872288   -0.00104398

     Total force =     0.021758     Total SCF correction =     0.000044


     Computing stress (Cartesian axis) and pressure

          total   stress  (Ry/bohr**3)                   (kbar)     P=   61.72
   0.00042162   0.00001237  -0.00001387         62.02      1.82     -2.04
   0.00001237   0.00041376  -0.00002010          1.82     60.87     -2.96
  -0.00001387  -0.00002010   0.00042337         -2.04     -2.96     62.28


     number of scf cycles    =   3
     number of bfgs steps    =   2

     enthalpy old            =    -820.3441682279 Ry
     enthalpy new            =    -820.3838112474 Ry

     CASE: enthalpy_new < enthalpy_old

     new trust radius        =       0.0923996268 bohr
     new conv_thr            =            1.0E-10 Ry

     new unit-cell volume =    833.35381 a.u.^3 (   123.49029 Ang^3 )
     density =      6.32247 g/cm^3

CELL_PARAMETERS (alat=  1.88972599)
   1.636067325  -4.919109871  -4.921624739
  -4.919811503   4.911456932  -1.636762859
   4.926254210   1.646962020   4.920387906

ATOMIC_POSITIONS (angstrom)
Ti       1.639449778   1.636304928  -1.653177224
Ti      -0.002536155   3.280763317   0.007651948
Ti       3.288111902   0.000211137  -0.004736062
Ti       1.646125694   1.644670161   1.656092820
Nb       1.639566843  -1.638723572  -1.640355837
Nb      -0.011529950  -0.011262649  -3.263702790
Nb      -1.629147987   1.645273005  -1.653771618


     NEW-OLD atomic charge density approx. for the potential
     extrapolated charge   90.92682, renormalised to   87.00000

     total cpu time spent up to now is    14241.7 secs

     Self-consistent Calculation

     iteration #  1     ecut=    50.00 Ry     beta= 0.60
     Davidson diagonalization with overlap
     c_bands:  1 eigenvalues not converged
     c_bands:  1 eigenvalues not converged
     c_bands:  1 eigenvalues not converged
     c_bands:  1 eigenvalues not converged
     c_bands:  1 eigenvalues not converged
     c_bands:  1 eigenvalues not converged
     c_bands:  1 eigenvalues not converged
     ethr =  1.00E-06,  avg # of iterations = 13.6

     total cpu time spent up to now is    14604.7 secs

     total energy              =    -819.56726260 Ry
     Harris-Foulkes estimate   =    -813.59048881 Ry
     estimated scf accuracy    <       0.64133086 Ry

     iteration #  2     ecut=    50.00 Ry     beta= 0.60
     Davidson diagonalization with overlap
     ethr =  7.37E-04,  avg # of iterations =  6.0

     total cpu time spent up to now is    14805.8 secs

     total energy              =    -819.76480877 Ry
     Harris-Foulkes estimate   =    -821.09261605 Ry
     estimated scf accuracy    <       6.21313052 Ry

     iteration #  3     ecut=    50.00 Ry     beta= 0.60
     Davidson diagonalization with overlap
     ethr =  7.37E-04,  avg # of iterations =  5.2

     total cpu time spent up to now is    14983.8 secs

     total energy              =    -820.00253406 Ry
     Harris-Foulkes estimate   =    -820.91441415 Ry
     estimated scf accuracy    <       6.12056125 Ry

     iteration #  4     ecut=    50.00 Ry     beta= 0.60
     Davidson diagonalization with overlap
     ethr =  7.37E-04,  avg # of iterations =  5.6

     total cpu time spent up to now is    15148.1 secs

     total energy              =    -820.41997427 Ry
     Harris-Foulkes estimate   =    -820.45409923 Ry
     estimated scf accuracy    <       0.45000561 Ry

     iteration #  5     ecut=    50.00 Ry     beta= 0.60
     Davidson diagonalization with overlap
     ethr =  5.17E-04,  avg # of iterations =  1.1

     total cpu time spent up to now is    15240.9 secs

     total energy              =    -820.41384544 Ry
     Harris-Foulkes estimate   =    -820.44163300 Ry
     estimated scf accuracy    <       0.30286001 Ry

     iteration #  6     ecut=    50.00 Ry     beta= 0.60
     Davidson diagonalization with overlap
     ethr =  3.48E-04,  avg # of iterations =  1.0

     total cpu time spent up to now is    15333.4 secs

     total energy              =    -820.41010417 Ry
     Harris-Foulkes estimate   =    -820.41981257 Ry
     estimated scf accuracy    <       0.16147943 Ry

     iteration #  7     ecut=    50.00 Ry     beta= 0.60
     Davidson diagonalization with overlap
     ethr =  1.86E-04,  avg # of iterations =  1.0

     total cpu time spent up to now is    15425.7 secs

     total energy              =    -820.39555661 Ry
     Harris-Foulkes estimate   =    -820.41144346 Ry
     estimated scf accuracy    <       0.11918811 Ry

     iteration #  8     ecut=    50.00 Ry     beta= 0.60
     Davidson diagonalization with overlap
     ethr =  1.37E-04,  avg # of iterations =  1.1

     total cpu time spent up to now is    15518.5 secs

     total energy              =    -820.39050657 Ry
     Harris-Foulkes estimate   =    -820.39796135 Ry
     estimated scf accuracy    <       0.05608072 Ry

     iteration #  9     ecut=    50.00 Ry     beta= 0.60
     Davidson diagonalization with overlap
     ethr =  6.45E-05,  avg # of iterations =  2.4

     total cpu time spent up to now is    15621.2 secs

     total energy              =    -820.39055274 Ry
     Harris-Foulkes estimate   =    -820.39269036 Ry
     estimated scf accuracy    <       0.02038029 Ry

     iteration # 10     ecut=    50.00 Ry     beta= 0.60
     Davidson diagonalization with overlap
     c_bands:  1 eigenvalues not converged
     c_bands:  3 eigenvalues not converged
     c_bands:  1 eigenvalues not converged
     c_bands:  1 eigenvalues not converged
     c_bands:  1 eigenvalues not converged
     c_bands:  1 eigenvalues not converged
     c_bands:  2 eigenvalues not converged
     ethr =  2.34E-05,  avg # of iterations =  5.9

     total cpu time spent up to now is    15751.2 secs

     total energy              =    -820.38920943 Ry
     Harris-Foulkes estimate   =    -820.39170806 Ry
     estimated scf accuracy    <       0.00776623 Ry

     iteration # 11     ecut=    50.00 Ry     beta= 0.60
     Davidson diagonalization with overlap
     ethr =  8.93E-06,  avg # of iterations =  6.5

     total cpu time spent up to now is    15919.2 secs

     total energy              =    -820.39084494 Ry
     Harris-Foulkes estimate   =    -820.39087834 Ry
     estimated scf accuracy    <       0.00063560 Ry

     iteration # 12     ecut=    50.00 Ry     beta= 0.60
     Davidson diagonalization with overlap
     c_bands:  1 eigenvalues not converged
     c_bands:  1 eigenvalues not converged
     c_bands:  1 eigenvalues not converged
     c_bands:  1 eigenvalues not converged
     c_bands:  1 eigenvalues not converged
     c_bands:  1 eigenvalues not converged
     c_bands:  1 eigenvalues not converged
     c_bands:  1 eigenvalues not converged
     c_bands:  1 eigenvalues not converged
     ethr =  7.31E-07,  avg # of iterations =  3.0

     total cpu time spent up to now is    16028.9 secs

     total energy              =    -820.39084861 Ry
     Harris-Foulkes estimate   =    -820.39088139 Ry
     estimated scf accuracy    <       0.00042296 Ry

     iteration # 13     ecut=    50.00 Ry     beta= 0.60
     Davidson diagonalization with overlap
     c_bands:  1 eigenvalues not converged
     ethr =  4.86E-07,  avg # of iterations =  2.4

     total cpu time spent up to now is    16129.8 secs

     total energy              =    -820.39081003 Ry
     Harris-Foulkes estimate   =    -820.39090156 Ry
     estimated scf accuracy    <       0.00094019 Ry

     iteration # 14     ecut=    50.00 Ry     beta= 0.60
     Davidson diagonalization with overlap
     ethr =  4.86E-07,  avg # of iterations =  1.0

     total cpu time spent up to now is    16222.7 secs

     total energy              =    -820.39084531 Ry
     Harris-Foulkes estimate   =    -820.39084986 Ry
     estimated scf accuracy    <       0.00008518 Ry

     iteration # 15     ecut=    50.00 Ry     beta= 0.60
     Davidson diagonalization with overlap
     ethr =  9.79E-08,  avg # of iterations =  3.6

     total cpu time spent up to now is    16340.2 secs

     total energy              =    -820.39084066 Ry
     Harris-Foulkes estimate   =    -820.39085241 Ry
     estimated scf accuracy    <       0.00005089 Ry

     iteration # 16     ecut=    50.00 Ry     beta= 0.60
     Davidson diagonalization with overlap
     ethr =  5.85E-08,  avg # of iterations =  3.8

     total cpu time spent up to now is    16469.5 secs

     total energy              =    -820.39084865 Ry
     Harris-Foulkes estimate   =    -820.39085256 Ry
     estimated scf accuracy    <       0.00005047 Ry

     iteration # 17     ecut=    50.00 Ry     beta= 0.60
     Davidson diagonalization with overlap
     ethr =  5.80E-08,  avg # of iterations =  1.0

     total cpu time spent up to now is    16561.8 secs

     total energy              =    -820.39084648 Ry
     Harris-Foulkes estimate   =    -820.39085057 Ry
     estimated scf accuracy    <       0.00002376 Ry

     iteration # 18     ecut=    50.00 Ry     beta= 0.60
     Davidson diagonalization with overlap
     ethr =  2.73E-08,  avg # of iterations =  2.7

     total cpu time spent up to now is    16670.1 secs

     total energy              =    -820.39084878 Ry
     Harris-Foulkes estimate   =    -820.39084933 Ry
     estimated scf accuracy    <       0.00000253 Ry

     iteration # 19     ecut=    50.00 Ry     beta= 0.60
     Davidson diagonalization with overlap
     ethr =  2.91E-09,  avg # of iterations =  3.4

     total cpu time spent up to now is    16792.6 secs

     total energy              =    -820.39084884 Ry
     Harris-Foulkes estimate   =    -820.39084945 Ry
     estimated scf accuracy    <       0.00000418 Ry

     iteration # 20     ecut=    50.00 Ry     beta= 0.60
     Davidson diagonalization with overlap
     ethr =  2.91E-09,  avg # of iterations =  2.6

     total cpu time spent up to now is    16894.1 secs

     total energy              =    -820.39084913 Ry
     Harris-Foulkes estimate   =    -820.39084929 Ry
     estimated scf accuracy    <       0.00000122 Ry

     iteration # 21     ecut=    50.00 Ry     beta= 0.60
     Davidson diagonalization with overlap
     ethr =  1.40E-09,  avg # of iterations =  2.7

     total cpu time spent up to now is    17001.1 secs

     total energy              =    -820.39084918 Ry
     Harris-Foulkes estimate   =    -820.39084931 Ry
     estimated scf accuracy    <       0.00000110 Ry

     iteration # 22     ecut=    50.00 Ry     beta= 0.60
     Davidson diagonalization with overlap
     ethr =  1.26E-09,  avg # of iterations =  1.0

     total cpu time spent up to now is    17093.6 secs

     total energy              =    -820.39084923 Ry
     Harris-Foulkes estimate   =    -820.39084924 Ry
     estimated scf accuracy    <       0.00000008 Ry

     iteration # 23     ecut=    50.00 Ry     beta= 0.60
     Davidson diagonalization with overlap
     ethr =  8.67E-11,  avg # of iterations =  4.1

     total cpu time spent up to now is    17229.1 secs

     total energy              =    -820.39084924 Ry
     Harris-Foulkes estimate   =    -820.39084925 Ry
     estimated scf accuracy    <       0.00000005 Ry

     iteration # 24     ecut=    50.00 Ry     beta= 0.60
     Davidson diagonalization with overlap
     ethr =  5.94E-11,  avg # of iterations =  2.5

     total cpu time spent up to now is    17331.5 secs

     total energy              =    -820.39084924 Ry
     Harris-Foulkes estimate   =    -820.39084925 Ry
     estimated scf accuracy    <       0.00000005 Ry

     iteration # 25     ecut=    50.00 Ry     beta= 0.60
     Davidson diagonalization with overlap
     ethr =  5.84E-11,  avg # of iterations =  2.7

     total cpu time spent up to now is    17441.0 secs

     total energy              =    -820.39084924 Ry
     Harris-Foulkes estimate   =    -820.39084925 Ry
     estimated scf accuracy    <       0.00000006 Ry

     iteration # 26     ecut=    50.00 Ry     beta= 0.60
     Davidson diagonalization with overlap
     ethr =  5.84E-11,  avg # of iterations =  1.1

     total cpu time spent up to now is    17533.8 secs

     total energy              =    -820.39084924 Ry
     Harris-Foulkes estimate   =    -820.39084925 Ry
     estimated scf accuracy    <          8.8E-09 Ry

     iteration # 27     ecut=    50.00 Ry     beta= 0.60
     Davidson diagonalization with overlap
     ethr =  1.01E-11,  avg # of iterations =  3.2

     total cpu time spent up to now is    17648.1 secs

     total energy              =    -820.39084924 Ry
     Harris-Foulkes estimate   =    -820.39084925 Ry
     estimated scf accuracy    <          2.0E-09 Ry

     iteration # 28     ecut=    50.00 Ry     beta= 0.60
     Davidson diagonalization with overlap
     ethr =  2.33E-12,  avg # of iterations =  2.6

     total cpu time spent up to now is    17754.0 secs

     total energy              =    -820.39084925 Ry
     Harris-Foulkes estimate   =    -820.39084925 Ry
     estimated scf accuracy    <          1.4E-10 Ry

     iteration # 29     ecut=    50.00 Ry     beta= 0.60
     Davidson diagonalization with overlap
     ethr =  1.63E-13,  avg # of iterations =  4.4

     total cpu time spent up to now is    17901.1 secs

     End of self-consistent calculation

     Number of k-points >= 100: set verbosity='high' to print the bands.

     the Fermi energy is    15.2481 ev

!    total energy              =    -820.39084925 Ry
     Harris-Foulkes estimate   =    -820.39084925 Ry
     estimated scf accuracy    <          9.2E-11 Ry

     The total energy is the sum of the following terms:

     one-electron contribution =    -214.90363915 Ry
     hartree contribution      =     142.95311773 Ry
     xc contribution           =    -113.43992897 Ry
     ewald contribution        =    -634.99872116 Ry
     smearing contrib. (-TS)   =      -0.00167770 Ry

     convergence has been achieved in  29 iterations

     Forces acting on atoms (cartesian axes, Ry/au):

     atom    1 type  2   force =     0.00178501    0.00168069   -0.00293068
     atom    2 type  2   force =    -0.00177135   -0.00184949    0.00181125
     atom    3 type  2   force =     0.00177037    0.00184820   -0.00181302
     atom    4 type  2   force =    -0.00178379   -0.00167987    0.00293239
     atom    5 type  1   force =    -0.00000013   -0.00000016   -0.00000017
     atom    6 type  1   force =    -0.00784069   -0.00673346    0.00429018
     atom    7 type  1   force =     0.00784057    0.00673408   -0.00428995

     Total force =     0.017301     Total SCF correction =     0.000036


     Computing stress (Cartesian axis) and pressure

          total   stress  (Ry/bohr**3)                   (kbar)     P=   -7.92
  -0.00005055   0.00001272  -0.00000700         -7.44      1.87     -1.03
   0.00001272  -0.00006136  -0.00000815          1.87     -9.03     -1.20
  -0.00000700  -0.00000815  -0.00004952         -1.03     -1.20     -7.29


     number of scf cycles    =   4
     number of bfgs steps    =   3

     enthalpy old            =    -820.3838112474 Ry
     enthalpy new            =    -820.3908492450 Ry

     CASE: enthalpy_new < enthalpy_old

     new trust radius        =       0.0116710719 bohr
     new conv_thr            =            1.0E-10 Ry

     new unit-cell volume =    828.81705 a.u.^3 (   122.81801 Ang^3 )
     density =      6.35708 g/cm^3

CELL_PARAMETERS (alat=  1.88972599)
   1.632557549  -4.907958802  -4.912502555
  -4.909579522   4.900514173  -1.634032059
   4.917427295   1.644261136   4.910819434

ATOMIC_POSITIONS (angstrom)
Ti       1.638132487   1.634543184  -1.652272659
Ti      -0.002402391   3.273420721   0.007894160
Ti       3.283251055   0.001983759  -0.006078832
Ti       1.642716879   1.640862833   1.654089201
Nb       1.636500946  -1.634686524  -1.637486954
Nb      -0.014600435  -0.013745776  -3.256041202
Nb      -1.621977258   1.644887831  -1.652964435


     NEW-OLD atomic charge density approx. for the potential
     extrapolated charge   86.54572, renormalised to   87.00000

     total cpu time spent up to now is    17922.7 secs

     Self-consistent Calculation

     iteration #  1     ecut=    50.00 Ry     beta= 0.60
     Davidson diagonalization with overlap
     ethr =  1.00E-06,  avg # of iterations =  5.0

     total cpu time spent up to now is    18126.8 secs

     total energy              =    -820.37584507 Ry
     Harris-Foulkes estimate   =    -821.19259299 Ry
     estimated scf accuracy    <       0.01307384 Ry

     iteration #  2     ecut=    50.00 Ry     beta= 0.60
     Davidson diagonalization with overlap
     ethr =  1.50E-05,  avg # of iterations =  5.6

     total cpu time spent up to now is    18329.5 secs

     total energy              =    -820.37577584 Ry
     Harris-Foulkes estimate   =    -820.41088523 Ry
     estimated scf accuracy    <       0.19572389 Ry

     iteration #  3     ecut=    50.00 Ry     beta= 0.60
     Davidson diagonalization with overlap
     ethr =  1.50E-05,  avg # of iterations =  5.1

     total cpu time spent up to now is    18502.5 secs

     total energy              =    -820.38733531 Ry
     Harris-Foulkes estimate   =    -820.39825852 Ry
     estimated scf accuracy    <       0.05679262 Ry

     iteration #  4     ecut=    50.00 Ry     beta= 0.60
     Davidson diagonalization with overlap
     ethr =  1.50E-05,  avg # of iterations =  3.6

     total cpu time spent up to now is    18629.4 secs

     total energy              =    -820.39192324 Ry
     Harris-Foulkes estimate   =    -820.39244316 Ry
     estimated scf accuracy    <       0.00735307 Ry

     iteration #  5     ecut=    50.00 Ry     beta= 0.60
     Davidson diagonalization with overlap
     ethr =  8.45E-06,  avg # of iterations =  1.4

     total cpu time spent up to now is    18724.1 secs

     total energy              =    -820.39165272 Ry
     Harris-Foulkes estimate   =    -820.39225503 Ry
     estimated scf accuracy    <       0.00622796 Ry

     iteration #  6     ecut=    50.00 Ry     beta= 0.60
     Davidson diagonalization with overlap
     ethr =  7.16E-06,  avg # of iterations =  1.0

     total cpu time spent up to now is    18816.4 secs

     total energy              =    -820.39147850 Ry
     Harris-Foulkes estimate   =    -820.39177850 Ry
     estimated scf accuracy    <       0.00328148 Ry

     iteration #  7     ecut=    50.00 Ry     beta= 0.60
     Davidson diagonalization with overlap
     ethr =  3.77E-06,  avg # of iterations =  1.0

     total cpu time spent up to now is    18908.8 secs

     total energy              =    -820.39122072 Ry
     Harris-Foulkes estimate   =    -820.39152609 Ry
     estimated scf accuracy    <       0.00195194 Ry

     iteration #  8     ecut=    50.00 Ry     beta= 0.60
     Davidson diagonalization with overlap
     ethr =  2.24E-06,  avg # of iterations =  2.0

     total cpu time spent up to now is    19007.6 secs

     total energy              =    -820.39124868 Ry
     Harris-Foulkes estimate   =    -820.39128985 Ry
     estimated scf accuracy    <       0.00062681 Ry

     iteration #  9     ecut=    50.00 Ry     beta= 0.60
     Davidson diagonalization with overlap
     ethr =  7.20E-07,  avg # of iterations =  3.0

     total cpu time spent up to now is    19115.8 secs

     total energy              =    -820.39119353 Ry
     Harris-Foulkes estimate   =    -820.39127883 Ry
     estimated scf accuracy    <       0.00031838 Ry

     iteration # 10     ecut=    50.00 Ry     beta= 0.60
     Davidson diagonalization with overlap
     ethr =  3.66E-07,  avg # of iterations =  3.8

     total cpu time spent up to now is    19243.3 secs

     total energy              =    -820.39124540 Ry
     Harris-Foulkes estimate   =    -820.39124639 Ry
     estimated scf accuracy    <       0.00001193 Ry

     iteration # 11     ecut=    50.00 Ry     beta= 0.60
     Davidson diagonalization with overlap
     ethr =  1.37E-08,  avg # of iterations =  4.8

     total cpu time spent up to now is    19399.2 secs

     total energy              =    -820.39124871 Ry
     Harris-Foulkes estimate   =    -820.39125061 Ry
     estimated scf accuracy    <       0.00003148 Ry

     iteration # 12     ecut=    50.00 Ry     beta= 0.60
     Davidson diagonalization with overlap
     ethr =  1.37E-08,  avg # of iterations =  1.0

     total cpu time spent up to now is    19491.9 secs

     total energy              =    -820.39124829 Ry
     Harris-Foulkes estimate   =    -820.39124905 Ry
     estimated scf accuracy    <       0.00001781 Ry

     iteration # 13     ecut=    50.00 Ry     beta= 0.60
     Davidson diagonalization with overlap
     ethr =  1.37E-08,  avg # of iterations =  1.0

     total cpu time spent up to now is    19584.6 secs

     total energy              =    -820.39124799 Ry
     Harris-Foulkes estimate   =    -820.39124857 Ry
     estimated scf accuracy    <       0.00001115 Ry

     iteration # 14     ecut=    50.00 Ry     beta= 0.60
     Davidson diagonalization with overlap
     ethr =  1.28E-08,  avg # of iterations =  1.0

     total cpu time spent up to now is    19677.3 secs

     total energy              =    -820.39124746 Ry
     Harris-Foulkes estimate   =    -820.39124819 Ry
     estimated scf accuracy    <       0.00000695 Ry

     iteration # 15     ecut=    50.00 Ry     beta= 0.60
     Davidson diagonalization with overlap
     ethr =  7.99E-09,  avg # of iterations =  2.6

     total cpu time spent up to now is    19782.5 secs

     total energy              =    -820.39124767 Ry
     Harris-Foulkes estimate   =    -820.39124782 Ry
     estimated scf accuracy    <       0.00000091 Ry

     iteration # 16     ecut=    50.00 Ry     beta= 0.60
     Davidson diagonalization with overlap
     ethr =  1.05E-09,  avg # of iterations =  4.2

     total cpu time spent up to now is    19923.8 secs

     total energy              =    -820.39124787 Ry
     Harris-Foulkes estimate   =    -820.39124792 Ry
     estimated scf accuracy    <       0.00000063 Ry

     iteration # 17     ecut=    50.00 Ry     beta= 0.60
     Davidson diagonalization with overlap
     ethr =  7.27E-10,  avg # of iterations =  1.0

     total cpu time spent up to now is    20016.5 secs

     total energy              =    -820.39124783 Ry
     Harris-Foulkes estimate   =    -820.39124789 Ry
     estimated scf accuracy    <       0.00000024 Ry

     iteration # 18     ecut=    50.00 Ry     beta= 0.60
     Davidson diagonalization with overlap
     ethr =  2.80E-10,  avg # of iterations =  3.5

     total cpu time spent up to now is    20143.9 secs

     total energy              =    -820.39124787 Ry
     Harris-Foulkes estimate   =    -820.39124790 Ry
[...]
     c_bands:  1 eigenvalues not converged
     c_bands:  1 eigenvalues not converged
     c_bands:  2 eigenvalues not converged
     c_bands:  2 eigenvalues not converged
     c_bands:  2 eigenvalues not converged
     c_bands:  1 eigenvalues not converged
     c_bands:  1 eigenvalues not converged
     c_bands:  1 eigenvalues not converged
     c_bands:  1 eigenvalues not converged
     c_bands:  1 eigenvalues not converged
     c_bands:  1 eigenvalues not converged
     c_bands:  2 eigenvalues not converged
     c_bands:  2 eigenvalues not converged
     c_bands:  2 eigenvalues not converged
     c_bands:  1 eigenvalues not converged
     c_bands:  1 eigenvalues not converged
     c_bands:  1 eigenvalues not converged
     c_bands:  1 eigenvalues not converged
     c_bands:  1 eigenvalues not converged
     c_bands:  1 eigenvalues not converged
     c_bands:  2 eigenvalues not converged
     c_bands:  2 eigenvalues not converged
     c_bands:  2 eigenvalues not converged
     c_bands:  1 eigenvalues not converged
     c_bands:  1 eigenvalues not converged
     c_bands:  1 eigenvalues not converged
     c_bands:  1 eigenvalues not converged
     c_bands:  1 eigenvalues not converged
     c_bands:  1 eigenvalues not converged
     c_bands:  2 eigenvalues not converged
     c_bands:  1 eigenvalues not converged
     c_bands:  1 eigenvalues not converged
     c_bands:  1 eigenvalues not converged
     c_bands:  1 eigenvalues not converged
     c_bands:  1 eigenvalues not converged
     c_bands:  2 eigenvalues not converged
     c_bands:  1 eigenvalues not converged
     c_bands:  1 eigenvalues not converged
     c_bands:  1 eigenvalues not converged
     c_bands:  1 eigenvalues not converged
     c_bands:  1 eigenvalues not converged
     c_bands:  2 eigenvalues not converged
     c_bands:  2 eigenvalues not converged
     c_bands:  1 eigenvalues not converged
     c_bands:  1 eigenvalues not converged
     c_bands:  1 eigenvalues not converged
     c_bands:  1 eigenvalues not converged
     c_bands:  1 eigenvalues not converged
     c_bands:  1 eigenvalues not converged
     ethr =  1.00E-06,  avg # of iterations = 19.4

     total cpu time spent up to now is   123239.6 secs

     total energy              =    -792.55632210 Ry
     Harris-Foulkes estimate   =    -825.24463573 Ry
     estimated scf accuracy    <      40.71176584 Ry

     iteration #  2     ecut=    50.00 Ry     beta= 0.60
     Davidson diagonalization with overlap
     ethr =  1.00E-02,  avg # of iterations =  5.8

     total cpu time spent up to now is   123427.6 secs

     total energy              =    -802.44764625 Ry
     Harris-Foulkes estimate   =    -874.13621247 Ry
     estimated scf accuracy    <     232.50274491 Ry

     iteration #  3     ecut=    50.00 Ry     beta= 0.60
     Davidson diagonalization with overlap
     ethr =  1.00E-02,  avg # of iterations =  5.0

     total cpu time spent up to now is   123593.8 secs

     total energy              =    -821.14217181 Ry
     Harris-Foulkes estimate   =    -824.52395958 Ry
     estimated scf accuracy    <      28.09108969 Ry

     iteration #  4     ecut=    50.00 Ry     beta= 0.60
     Davidson diagonalization with overlap
     ethr =  1.00E-02,  avg # of iterations =  2.0

     total cpu time spent up to now is   123674.9 secs

     total energy              =    -820.52838491 Ry
     Harris-Foulkes estimate   =    -821.47345987 Ry
     estimated scf accuracy    <      16.61784440 Ry

     iteration #  5     ecut=    50.00 Ry     beta= 0.60
     Davidson diagonalization with overlap
     ethr =  1.00E-02,  avg # of iterations =  1.4

     total cpu time spent up to now is   123752.3 secs

     total energy              =    -820.43998161 Ry
     Harris-Foulkes estimate   =    -820.70753328 Ry
     estimated scf accuracy    <       9.68416374 Ry

     iteration #  6     ecut=    50.00 Ry     beta= 0.60
     Davidson diagonalization with overlap
     ethr =  1.00E-02,  avg # of iterations =  1.3

     total cpu time spent up to now is   123828.8 secs

     total energy              =    -819.84193134 Ry
     Harris-Foulkes estimate   =    -820.53623827 Ry
     estimated scf accuracy    <       7.31176579 Ry

     iteration #  7     ecut=    50.00 Ry     beta= 0.60
     Davidson diagonalization with overlap
     ethr =  8.40E-03,  avg # of iterations =  2.8

     total cpu time spent up to now is   123916.4 secs

     total energy              =    -820.20501260 Ry
     Harris-Foulkes estimate   =    -820.28698153 Ry
     estimated scf accuracy    <       0.81451225 Ry

     iteration #  8     ecut=    50.00 Ry     beta= 0.60
     Davidson diagonalization with overlap
     ethr =  9.36E-04,  avg # of iterations =  5.7

     total cpu time spent up to now is   124062.3 secs

     total energy              =    -820.36299955 Ry
     Harris-Foulkes estimate   =    -820.45733797 Ry
     estimated scf accuracy    <       0.76732492 Ry

     iteration #  9     ecut=    50.00 Ry     beta= 0.60
     Davidson diagonalization with overlap
     ethr =  8.82E-04,  avg # of iterations =  1.0

     total cpu time spent up to now is   124137.5 secs

     total energy              =    -820.39001996 Ry
     Harris-Foulkes estimate   =    -820.41462598 Ry
     estimated scf accuracy    <       0.41242829 Ry

     iteration # 10     ecut=    50.00 Ry     beta= 0.60
     Davidson diagonalization with overlap
     ethr =  4.74E-04,  avg # of iterations =  1.0

     total cpu time spent up to now is   124212.7 secs

     total energy              =    -820.39370949 Ry
     Harris-Foulkes estimate   =    -820.40380601 Ry
     estimated scf accuracy    <       0.22929556 Ry

     iteration # 11     ecut=    50.00 Ry     beta= 0.60
     Davidson diagonalization with overlap
     ethr =  2.64E-04,  avg # of iterations =  1.3

     total cpu time spent up to now is   124289.7 secs

     total energy              =    -820.39088062 Ry
     Harris-Foulkes estimate   =    -820.40466715 Ry
     estimated scf accuracy    <       0.18763687 Ry

     iteration # 12     ecut=    50.00 Ry     beta= 0.60
     Davidson diagonalization with overlap
     ethr =  2.16E-04,  avg # of iterations =  4.4

     total cpu time spent up to now is   124394.9 secs

     total energy              =    -820.37684420 Ry
     Harris-Foulkes estimate   =    -820.42435021 Ry
     estimated scf accuracy    <       0.55932668 Ry

     iteration # 13     ecut=    50.00 Ry     beta= 0.60
     Davidson diagonalization with overlap
     ethr =  2.16E-04,  avg # of iterations =  1.1

     total cpu time spent up to now is   124470.8 secs

     total energy              =    -820.38101656 Ry
     Harris-Foulkes estimate   =    -820.39616962 Ry
     estimated scf accuracy    <       0.08687698 Ry

     iteration # 14     ecut=    50.00 Ry     beta= 0.60
     Davidson diagonalization with overlap
     ethr =  9.99E-05,  avg # of iterations =  5.3

     total cpu time spent up to now is   124592.5 secs

     total energy              =    -820.38968814 Ry
     Harris-Foulkes estimate   =    -820.40140645 Ry
     estimated scf accuracy    <       0.08907836 Ry

     iteration # 15     ecut=    50.00 Ry     beta= 0.60
     Davidson diagonalization with overlap
     ethr =  9.99E-05,  avg # of iterations =  1.0

     total cpu time spent up to now is   124667.7 secs

     total energy              =    -820.39179258 Ry
     Harris-Foulkes estimate   =    -820.39451280 Ry
     estimated scf accuracy    <       0.01919954 Ry

     iteration # 16     ecut=    50.00 Ry     beta= 0.60
     Davidson diagonalization with overlap
     ethr =  2.21E-05,  avg # of iterations =  5.2

     total cpu time spent up to now is   124787.9 secs

     total energy              =    -820.39442256 Ry
     Harris-Foulkes estimate   =    -820.39513341 Ry
     estimated scf accuracy    <       0.00449515 Ry

     iteration # 17     ecut=    50.00 Ry     beta= 0.60
     Davidson diagonalization with overlap
     c_bands:  1 eigenvalues not converged
     c_bands:  1 eigenvalues not converged
     ethr =  5.17E-06,  avg # of iterations =  2.9

     total cpu time spent up to now is   124876.1 secs

     total energy              =    -820.39474590 Ry
     Harris-Foulkes estimate   =    -820.39481361 Ry
     estimated scf accuracy    <       0.00048938 Ry

     iteration # 18     ecut=    50.00 Ry     beta= 0.60
     Davidson diagonalization with overlap
     c_bands:  1 eigenvalues not converged
     ethr =  5.63E-07,  avg # of iterations =  5.6

     total cpu time spent up to now is   125008.4 secs

     total energy              =    -820.39483168 Ry
     Harris-Foulkes estimate   =    -820.39490211 Ry
     estimated scf accuracy    <       0.00068064 Ry

     iteration # 19     ecut=    50.00 Ry     beta= 0.60
     Davidson diagonalization with overlap
     ethr =  5.63E-07,  avg # of iterations =  1.0

     total cpu time spent up to now is   125083.7 secs

     total energy              =    -820.39483440 Ry
     Harris-Foulkes estimate   =    -820.39485524 Ry
     estimated scf accuracy    <       0.00012898 Ry

     iteration # 20     ecut=    50.00 Ry     beta= 0.60
     Davidson diagonalization with overlap
     ethr =  1.48E-07,  avg # of iterations =  3.5

     total cpu time spent up to now is   125190.0 secs

     total energy              =    -820.39484713 Ry
     Harris-Foulkes estimate   =    -820.39486629 Ry
     estimated scf accuracy    <       0.00018485 Ry

     iteration # 21     ecut=    50.00 Ry     beta= 0.60
     Davidson diagonalization with overlap
     ethr =  1.48E-07,  avg # of iterations =  1.0

     total cpu time spent up to now is   125265.3 secs

     total energy              =    -820.39485350 Ry
     Harris-Foulkes estimate   =    -820.39485796 Ry
     estimated scf accuracy    <       0.00004557 Ry

     iteration # 22     ecut=    50.00 Ry     beta= 0.60
     Davidson diagonalization with overlap
     ethr =  5.24E-08,  avg # of iterations =  3.3

     total cpu time spent up to now is   125356.9 secs

     total energy              =    -820.39485519 Ry
     Harris-Foulkes estimate   =    -820.39485631 Ry
     estimated scf accuracy    <       0.00001077 Ry

     iteration # 23     ecut=    50.00 Ry     beta= 0.60
     Davidson diagonalization with overlap
     ethr =  1.24E-08,  avg # of iterations =  3.5

     total cpu time spent up to now is   125455.6 secs

     total energy              =    -820.39485594 Ry
     Harris-Foulkes estimate   =    -820.39485638 Ry
     estimated scf accuracy    <       0.00000454 Ry

     iteration # 24     ecut=    50.00 Ry     beta= 0.60
     Davidson diagonalization with overlap
     ethr =  5.22E-09,  avg # of iterations =  1.5

     total cpu time spent up to now is   125533.7 secs

     total energy              =    -820.39485607 Ry
     Harris-Foulkes estimate   =    -820.39485622 Ry
     estimated scf accuracy    <       0.00000137 Ry

     iteration # 25     ecut=    50.00 Ry     beta= 0.60
     Davidson diagonalization with overlap
     ethr =  1.58E-09,  avg # of iterations =  2.7

     total cpu time spent up to now is   125622.1 secs

     total energy              =    -820.39485615 Ry
     Harris-Foulkes estimate   =    -820.39485622 Ry
     estimated scf accuracy    <       0.00000059 Ry

     iteration # 26     ecut=    50.00 Ry     beta= 0.60
     Davidson diagonalization with overlap
     ethr =  6.73E-10,  avg # of iterations =  2.6

     total cpu time spent up to now is   125711.6 secs

     total energy              =    -820.39485617 Ry
     Harris-Foulkes estimate   =    -820.39485621 Ry
     estimated scf accuracy    <       0.00000026 Ry

     iteration # 27     ecut=    50.00 Ry     beta= 0.60
     Davidson diagonalization with overlap
     ethr =  2.99E-10,  avg # of iterations =  3.2

     total cpu time spent up to now is   125807.3 secs

     total energy              =    -820.39485619 Ry
     Harris-Foulkes estimate   =    -820.39485620 Ry
     estimated scf accuracy    <       0.00000011 Ry

     iteration # 28     ecut=    50.00 Ry     beta= 0.60
     Davidson diagonalization with overlap
     ethr =  1.21E-10,  avg # of iterations =  1.2

     total cpu time spent up to now is   125883.5 secs

     total energy              =    -820.39485619 Ry
     Harris-Foulkes estimate   =    -820.39485620 Ry
     estimated scf accuracy    <       0.00000002 Ry

     iteration # 29     ecut=    50.00 Ry     beta= 0.60
     Davidson diagonalization with overlap
     ethr =  2.50E-11,  avg # of iterations =  3.4

     total cpu time spent up to now is   125986.7 secs

     total energy              =    -820.39485620 Ry
     Harris-Foulkes estimate   =    -820.39485620 Ry
     estimated scf accuracy    <          2.3E-09 Ry

     iteration # 30     ecut=    50.00 Ry     beta= 0.60
     Davidson diagonalization with overlap
     ethr =  2.61E-12,  avg # of iterations =  3.3

     total cpu time spent up to now is   126088.6 secs

     total energy              =    -820.39485620 Ry
     Harris-Foulkes estimate   =    -820.39485620 Ry
     estimated scf accuracy    <          2.4E-09 Ry

     iteration # 31     ecut=    50.00 Ry     beta= 0.60
     Davidson diagonalization with overlap
     ethr =  2.61E-12,  avg # of iterations =  1.0

     total cpu time spent up to now is   126163.9 secs

     total energy              =    -820.39485620 Ry
     Harris-Foulkes estimate   =    -820.39485620 Ry
     estimated scf accuracy    <          7.9E-10 Ry

     iteration # 32     ecut=    50.00 Ry     beta= 0.60
     Davidson diagonalization with overlap
     ethr =  9.13E-13,  avg # of iterations =  2.9

     total cpu time spent up to now is   126257.6 secs

     total energy              =    -820.39485620 Ry
     Harris-Foulkes estimate   =    -820.39485620 Ry
     estimated scf accuracy    <          7.9E-11 Ry

     iteration # 33     ecut=    50.00 Ry     beta= 0.60
     Davidson diagonalization with overlap
     ethr =  1.00E-13,  avg # of iterations =  2.8

     total cpu time spent up to now is   126353.0 secs

     total energy              =    -820.39485620 Ry
     Harris-Foulkes estimate   =    -820.39485620 Ry
     estimated scf accuracy    <          2.4E-11 Ry

     iteration # 34     ecut=    50.00 Ry     beta= 0.60
     Davidson diagonalization with overlap
     ethr =  1.00E-13,  avg # of iterations =  3.7

     total cpu time spent up to now is   126458.8 secs

     total energy              =    -820.39485620 Ry
     Harris-Foulkes estimate   =    -820.39485620 Ry
     estimated scf accuracy    <          3.9E-10 Ry

     iteration # 35     ecut=    50.00 Ry     beta= 0.60
     Davidson diagonalization with overlap
     ethr =  1.00E-13,  avg # of iterations =  3.6

     total cpu time spent up to now is   126565.8 secs

     total energy              =    -820.39485620 Ry
     Harris-Foulkes estimate   =    -820.39485620 Ry
     estimated scf accuracy    <          1.3E-10 Ry

     iteration # 36     ecut=    50.00 Ry     beta= 0.60
     Davidson diagonalization with overlap
     ethr =  1.00E-13,  avg # of iterations =  1.6

     total cpu time spent up to now is   126645.2 secs

     total energy              =    -820.39485620 Ry
     Harris-Foulkes estimate   =    -820.39485620 Ry
     estimated scf accuracy    <          7.6E-12 Ry

     iteration # 37     ecut=    50.00 Ry     beta= 0.60
     Davidson diagonalization with overlap
     ethr =  1.00E-13,  avg # of iterations =  1.0

     total cpu time spent up to now is   126720.4 secs

     End of self-consistent calculation

     Number of k-points >= 100: set verbosity='high' to print the bands.

     the Fermi energy is    15.3311 ev

!    total energy              =    -820.39485620 Ry
     Harris-Foulkes estimate   =    -820.39485620 Ry
     estimated scf accuracy    <          3.5E-13 Ry

     The total energy is the sum of the following terms:

     one-electron contribution =    -214.12276407 Ry
     hartree contribution      =     142.82544972 Ry
     xc contribution           =    -113.47942636 Ry
     ewald contribution        =    -635.61831435 Ry
     smearing contrib. (-TS)   =       0.00019886 Ry

     convergence has been achieved in  37 iterations

     Forces acting on atoms (cartesian axes, Ry/au):

     atom    1 type  2   force =    -0.00000832   -0.00000213    0.00000463
     atom    2 type  2   force =     0.00001638   -0.00001356    0.00000167
     atom    3 type  2   force =    -0.00001140    0.00000856   -0.00000179
     atom    4 type  2   force =     0.00000694    0.00000397   -0.00000444
     atom    5 type  1   force =    -0.00000147    0.00000090   -0.00000026
     atom    6 type  1   force =     0.00001002   -0.00001257    0.00001110
     atom    7 type  1   force =    -0.00001215    0.00001482   -0.00001092

     Total force =     0.000041     Total SCF correction =     0.000003


     Computing stress (Cartesian axis) and pressure

          total   stress  (Ry/bohr**3)                   (kbar)     P=   -0.70
  -0.00000463  -0.00000016   0.00000010         -0.68     -0.02      0.01
  -0.00000016  -0.00000410   0.00000029         -0.02     -0.60      0.04
   0.00000010   0.00000029  -0.00000545          0.01      0.04     -0.80

 
     init_run     :     95.15s CPU     96.90s WALL (       2 calls)
     electrons    : 123837.99s CPU 125583.60s WALL (      46 calls)
     update_pot   :     39.40s CPU     39.86s WALL (      44 calls)
     forces       :    326.24s CPU    331.15s WALL (      46 calls)
     stress       :    657.45s CPU    668.64s WALL (      46 calls)

     Called by init_run:
     wfcinit      :     93.38s CPU     94.92s WALL (       2 calls)
     potinit      :      0.54s CPU      0.57s WALL (       2 calls)
     hinit0       :      0.82s CPU      0.86s WALL (       2 calls)

     Called by electrons:
     c_bands      : 106439.91s CPU 107784.77s WALL (    1014 calls)
     sum_band     :  17172.68s CPU  17469.95s WALL (    1014 calls)
     v_of_rho     :     76.62s CPU     77.12s WALL (    1049 calls)
     newd         :    139.90s CPU    209.49s WALL (    1049 calls)
     mix_rho      :      9.43s CPU      9.50s WALL (    1014 calls)

     Called by c_bands:
     init_us_2    :    927.39s CPU    939.41s WALL ( 1413252 calls)
     cegterg      : 102235.70s CPU 103340.26s WALL (  675325 calls)

     Called by sum_band:
     sum_band:bec :     50.09s CPU     51.74s WALL (  675324 calls)
     addusdens    :    172.85s CPU    252.08s WALL (    1014 calls)

     Called by *egterg:
     h_psi        :  77299.05s CPU  78298.90s WALL ( 2742256 calls)
     s_psi        :   1691.44s CPU   1697.06s WALL ( 2742256 calls)
     g_psi        :    221.72s CPU    225.47s WALL ( 2065599 calls)
     cdiaghg      :  15239.97s CPU  15270.33s WALL ( 2704293 calls)

     Called by h_psi:
     h_psi:pot    :  77095.40s CPU  78092.89s WALL ( 2742256 calls)
     h_psi:calbec :   2950.50s CPU   2969.29s WALL ( 2742256 calls)
     vloc_psi     :  72296.53s CPU  73262.49s WALL ( 2742256 calls)
     add_vuspsi   :   1833.44s CPU   1841.56s WALL ( 2742256 calls)

     General routines
     calbec       :   4166.78s CPU   4191.55s WALL ( 3570760 calls)
     fft          :     55.91s CPU     56.78s WALL (   14796 calls)
     ffts         :      1.56s CPU      1.57s WALL (    2063 calls)
     fftw         :  78437.34s CPU  79412.00s WALL (******** calls)
     interpolate  :      5.02s CPU      5.06s WALL (    1049 calls)
 
     Parallel routines
     fft_scatt_xy :  10571.22s CPU  10782.15s WALL (******** calls)
     fft_scatt_yz :  21532.58s CPU  21844.61s WALL (******** calls)
 
     PWSCF        :     1d   10h42m CPU        1d   11h12m WALL

 
   This run was terminated on:  20: 9:53  22Feb2020            

=------------------------------------------------------------------------------=
   JOB DONE.
=------------------------------------------------------------------------------=
