
     Program PWSCF v.6.3MaX starts on 10Feb2020 at 13: 8:31 

     This program is part of the open-source Quantum ESPRESSO suite
     for quantum simulation of materials; please cite
         "P. Giannozzi et al., J. Phys.:Condens. Matter 21 395502 (2009);
         "P. Giannozzi et al., J. Phys.:Condens. Matter 29 465901 (2017);
          URL http://www.quantum-espresso.org", 
     in publications or presentations arising from this work. More details at
     http://www.quantum-espresso.org/quote

     Parallel version (MPI), running on     4 processors

     MPI processes distributed on     1 nodes
     R & G space division:  proc/nbgrp/npool/nimage =       4
     Waiting for input...
     Reading input from standard input

     Current dimensions of program PWSCF are:
     Max number of different atomic species (ntypx) = 10
     Max number of k-points (npk) =  40000
     Max angular momentum in pseudopotentials (lmaxx) =  3
     Message from routine iosys:
     minimal I/O required, wf_collect reset to FALSE

     Subspace diagonalization in iterative solution of the eigenvalue problem:
     a serial algorithm will be used

--------------------------------------------------------------------------------
NOTICE: Bravais lattice has wrong number ( 3) of symmetries - symmetries are disabled
--------------------------------------------------------------------------------
 
     Parallelization info
     --------------------
     sticks:   dense  smooth     PW     G-vecs:    dense   smooth      PW
     Min        1835     734    268                48474    12248    2714
     Max        1837     735    269                48475    12249    2715
     Sum        7345    2939   1073               193897    48993   10859
 


     bravais-lattice index     =            0
     lattice parameter (alat)  =       1.8897  a.u.
     unit-cell volume          =    1026.6786 (a.u.)^3
     number of atoms/cell      =            7
     number of atomic types    =            2
     number of electrons       =        87.00
     number of Kohn-Sham states=           53
     kinetic-energy cutoff     =      50.0000  Ry
     charge density cutoff     =     500.0000  Ry
     convergence threshold     =      1.0E-10
     mixing beta               =       0.6000
     number of iterations used =            8  plain     mixing
     Exchange-correlation      = SLA PW PBE PBE ( 1  4  3  4 0 0)
     nstep                     =           50


     celldm(1)=   1.889726  celldm(2)=   0.000000  celldm(3)=   0.000000
     celldm(4)=   0.000000  celldm(5)=   0.000000  celldm(6)=   0.000000

     crystal axes: (cart. coord. in units of alat)
               a(1) = (   1.758031  -5.274095  -5.274095 )  
               a(2) = (  -5.274095   5.274095  -1.758031 )  
               a(3) = (   5.274095   1.758031   5.274095 )  

     reciprocal axes: (cart. coord. in units 2 pi/alat)
               b(1) = (  0.203149  0.121890 -0.243779 )  
               b(2) = (  0.121890  0.243779 -0.203149 )  
               b(3) = (  0.243779  0.203149 -0.121890 )  


     PseudoPot. # 1 for Nb read from file:
     ./Nb.pbe-nsp-van.UPF
     MD5 check sum: 0a22fc7fb0ba19a08ca5db297a5d2854
     Pseudo is Ultrasoft + core correction, Zval = 13.0
     Generated by new atomic code, or converted to UPF format
     Using radial grid of  887 points,  6 beta functions with: 
                l(1) =   0
                l(2) =   0
                l(3) =   1
                l(4) =   1
                l(5) =   2
                l(6) =   2
     Q(r) pseudized with  6 coefficients,  rinner =    1.000   1.000   1.000
                                                       1.000   1.000

     PseudoPot. # 2 for Ti read from file:
     ./Ti.pbe-sp-van_ak.UPF
     MD5 check sum: f98fea3e8887528921fefa5636a534ca
     Pseudo is Ultrasoft, Zval = 12.0
     Generated by new atomic code, or converted to UPF format
     Using radial grid of  851 points,  6 beta functions with: 
                l(1) =   0
                l(2) =   0
                l(3) =   1
                l(4) =   1
                l(5) =   2
                l(6) =   2
     Q(r) pseudized with  8 coefficients,  rinner =    1.000   1.000   1.000
                                                       1.000   1.000

     atomic species   valence    mass     pseudopotential
        Nb            13.00    92.90638     Nb( 1.00)
        Ti            12.00    47.86700     Ti( 1.00)

     No symmetry found



   Cartesian axes

     site n.     atom                  positions (alat units)
         1           Ti  tau(   1) = (   1.7580316   1.7580316  -1.7580316  )
         2           Ti  tau(   2) = (   0.0000000   3.5160633   0.0000000  )
         3           Ti  tau(   3) = (   3.5160633   0.0000000   0.0000000  )
         4           Ti  tau(   4) = (   1.7580316   1.7580316   1.7580316  )
         5           Nb  tau(   5) = (   1.7580316  -1.7580316  -1.7580316  )
         6           Nb  tau(   6) = (   0.0000000   0.0000000  -3.5160633  )
         7           Nb  tau(   7) = (  -1.7580316   1.7580316  -1.7580316  )

     number of k points=   666  Marzari-Vanderbilt smearing, width (Ry)=  0.0200

     Number of k-points >= 100: set verbosity='high' to print them.

     Dense  grid:   193897 G-vectors     FFT dimensions: ( 108, 108, 108)

     Smooth grid:    48993 G-vectors     FFT dimensions: (  72,  72,  72)

     Estimated max dynamical RAM per process >       1.00 GB

     Estimated total dynamical RAM >       4.01 GB

     Initial potential from superposition of free atoms

     starting charge   82.99162, renormalised to   87.00000
     Starting wfcs are   79 randomized atomic wfcs
