
     Program PWSCF v.6.3MaX starts on  3Feb2020 at 17: 9:53 

     This program is part of the open-source Quantum ESPRESSO suite
     for quantum simulation of materials; please cite
         "P. Giannozzi et al., J. Phys.:Condens. Matter 21 395502 (2009);
         "P. Giannozzi et al., J. Phys.:Condens. Matter 29 465901 (2017);
          URL http://www.quantum-espresso.org", 
     in publications or presentations arising from this work. More details at
     http://www.quantum-espresso.org/quote

     Parallel version (MPI), running on     4 processors

     MPI processes distributed on     1 nodes
     R & G space division:  proc/nbgrp/npool/nimage =       4
     Waiting for input...
     Reading input from standard input

     Current dimensions of program PWSCF are:
     Max number of different atomic species (ntypx) = 10
     Max number of k-points (npk) =  40000
     Max angular momentum in pseudopotentials (lmaxx) =  3
     Message from routine iosys:
     minimal I/O required, wf_collect reset to FALSE

     Subspace diagonalization in iterative solution of the eigenvalue problem:
     a serial algorithm will be used

 
     Parallelization info
     --------------------
     sticks:   dense  smooth     PW     G-vecs:    dense   smooth      PW
     Min         933     371    112                34659     8740    1457
     Max         934     373    113                34662     8741    1460
     Sum        3735    1489    451               138645    34963    5837
 


     bravais-lattice index     =            0
     lattice parameter (alat)  =       1.8897  a.u.
     unit-cell volume          =     733.3418 (a.u.)^3
     number of atoms/cell      =            5
     number of atomic types    =            2
     number of electrons       =        62.00
     number of Kohn-Sham states=           37
     kinetic-energy cutoff     =      50.0000  Ry
     charge density cutoff     =     500.0000  Ry
     convergence threshold     =      1.0E-10
     mixing beta               =       0.6000
     number of iterations used =            8  plain     mixing
     Exchange-correlation      = SLA PW PBE PBE ( 1  4  3  4 0 0)
     nstep                     =           50


     celldm(1)=   1.889726  celldm(2)=   0.000000  celldm(3)=   0.000000
     celldm(4)=   0.000000  celldm(5)=   0.000000  celldm(6)=   0.000000

     crystal axes: (cart. coord. in units of alat)
               a(1) = (  -1.758031   1.758031   5.274095 )  
               a(2) = (  -1.758031   5.274095   1.758031 )  
               a(3) = (  -5.274095   1.758031   1.758031 )  

     reciprocal axes: (cart. coord. in units 2 pi/alat)
               b(1) = (  0.056882 -0.056882  0.227527 )  
               b(2) = (  0.056882  0.227527 -0.056882 )  
               b(3) = ( -0.227527 -0.056882 -0.056882 )  


     PseudoPot. # 1 for Nb read from file:
     ./Nb.pbe-nsp-van.UPF
     MD5 check sum: 0a22fc7fb0ba19a08ca5db297a5d2854
     Pseudo is Ultrasoft + core correction, Zval = 13.0
     Generated by new atomic code, or converted to UPF format
     Using radial grid of  887 points,  6 beta functions with: 
                l(1) =   0
                l(2) =   0
                l(3) =   1
                l(4) =   1
                l(5) =   2
                l(6) =   2
     Q(r) pseudized with  6 coefficients,  rinner =    1.000   1.000   1.000
                                                       1.000   1.000

     PseudoPot. # 2 for Ti read from file:
     ./Ti.pbe-sp-van_ak.UPF
     MD5 check sum: f98fea3e8887528921fefa5636a534ca
     Pseudo is Ultrasoft, Zval = 12.0
     Generated by new atomic code, or converted to UPF format
     Using radial grid of  851 points,  6 beta functions with: 
                l(1) =   0
                l(2) =   0
                l(3) =   1
                l(4) =   1
                l(5) =   2
                l(6) =   2
     Q(r) pseudized with  8 coefficients,  rinner =    1.000   1.000   1.000
                                                       1.000   1.000

     atomic species   valence    mass     pseudopotential
        Nb            13.00    92.90638     Nb( 1.00)
        Ti            12.00    47.86700     Ti( 1.00)

     12 Sym. Ops., with inversion, found



   Cartesian axes

     site n.     atom                  positions (alat units)
         1           Ti  tau(   1) = (  -3.5160633   3.5160633   3.5160633  )
         2           Ti  tau(   2) = (  -5.2740949   5.2740949   5.2740949  )
         3           Nb  tau(   3) = (  -7.0321265   7.0321265   7.0321265  )
         4           Ti  tau(   4) = (  -8.7901582   8.7901582   8.7901582  )
         5           Nb  tau(   5) = (  -1.7580316   1.7580316   1.7580316  )

     number of k points=   189  Marzari-Vanderbilt smearing, width (Ry)=  0.0200

     Number of k-points >= 100: set verbosity='high' to print them.

     Dense  grid:   138645 G-vectors     FFT dimensions: (  80,  80,  80)

     Smooth grid:    34963 G-vectors     FFT dimensions: (  50,  50,  50)

     Estimated max dynamical RAM per process >     251.39 MB

     Estimated total dynamical RAM >    1005.57 MB

     Initial potential from superposition of free atoms

     starting charge   58.99440, renormalised to   62.00000
     Starting wfcs are   56 randomized atomic wfcs

     total cpu time spent up to now is       13.8 secs

     Self-consistent Calculation

     iteration #  1     ecut=    50.00 Ry     beta= 0.60
     Davidson diagonalization with overlap
     ethr =  1.00E-02,  avg # of iterations =  3.5

     total cpu time spent up to now is       41.7 secs

     total energy              =    -578.64882567 Ry
     Harris-Foulkes estimate   =    -587.70099713 Ry
     estimated scf accuracy    <      11.56143915 Ry

     iteration #  2     ecut=    50.00 Ry     beta= 0.60
     Davidson diagonalization with overlap
     ethr =  1.00E-02,  avg # of iterations =  5.3

     total cpu time spent up to now is       80.4 secs

     total energy              =    -582.03712129 Ry
     Harris-Foulkes estimate   =    -600.41774266 Ry
     estimated scf accuracy    <      58.37928490 Ry

     iteration #  3     ecut=    50.00 Ry     beta= 0.60
     Davidson diagonalization with overlap
     ethr =  1.00E-02,  avg # of iterations =  4.6

     total cpu time spent up to now is      110.7 secs

     total energy              =    -586.07150236 Ry
     Harris-Foulkes estimate   =    -586.35719037 Ry
     estimated scf accuracy    <       3.95687194 Ry

     iteration #  4     ecut=    50.00 Ry     beta= 0.60
     Davidson diagonalization with overlap
     ethr =  6.38E-03,  avg # of iterations =  1.9

     total cpu time spent up to now is      130.9 secs

     total energy              =    -585.40908417 Ry
     Harris-Foulkes estimate   =    -586.13929818 Ry
     estimated scf accuracy    <       3.17986692 Ry

     iteration #  5     ecut=    50.00 Ry     beta= 0.60
     Davidson diagonalization with overlap
     ethr =  5.13E-03,  avg # of iterations =  5.4

     total cpu time spent up to now is      158.5 secs

     total energy              =    -585.80812282 Ry
     Harris-Foulkes estimate   =    -585.83923331 Ry
     estimated scf accuracy    <       1.96463031 Ry

     iteration #  6     ecut=    50.00 Ry     beta= 0.60
     Davidson diagonalization with overlap
     ethr =  3.17E-03,  avg # of iterations =  2.5

     total cpu time spent up to now is      179.9 secs

     total energy              =    -585.48283775 Ry
     Harris-Foulkes estimate   =    -585.91709507 Ry
     estimated scf accuracy    <       5.00607855 Ry

     iteration #  7     ecut=    50.00 Ry     beta= 0.60
     Davidson diagonalization with overlap
     ethr =  3.17E-03,  avg # of iterations =  1.8

     total cpu time spent up to now is      200.1 secs

     total energy              =    -585.62946346 Ry
     Harris-Foulkes estimate   =    -585.69124025 Ry
     estimated scf accuracy    <       0.21678715 Ry

     iteration #  8     ecut=    50.00 Ry     beta= 0.60
     Davidson diagonalization with overlap
     ethr =  3.50E-04,  avg # of iterations =  6.6

     total cpu time spent up to now is      236.2 secs

     total energy              =    -585.73803747 Ry
     Harris-Foulkes estimate   =    -585.75329769 Ry
     estimated scf accuracy    <       0.64134722 Ry

     iteration #  9     ecut=    50.00 Ry     beta= 0.60
     Davidson diagonalization with overlap
     ethr =  3.50E-04,  avg # of iterations =  1.0

     total cpu time spent up to now is      255.8 secs

     total energy              =    -585.75115537 Ry
     Harris-Foulkes estimate   =    -585.74647348 Ry
     estimated scf accuracy    <       0.54119788 Ry

     iteration # 10     ecut=    50.00 Ry     beta= 0.60
     Davidson diagonalization with overlap
     ethr =  3.50E-04,  avg # of iterations =  1.1

     total cpu time spent up to now is      275.5 secs

     total energy              =    -585.73917017 Ry
     Harris-Foulkes estimate   =    -585.75544407 Ry
     estimated scf accuracy    <       0.59267267 Ry

     iteration # 11     ecut=    50.00 Ry     beta= 0.60
     Davidson diagonalization with overlap
     ethr =  3.50E-04,  avg # of iterations =  1.0

     total cpu time spent up to now is      295.1 secs

     total energy              =    -585.68077184 Ry
     Harris-Foulkes estimate   =    -585.74157045 Ry
     estimated scf accuracy    <       0.54263041 Ry

     iteration # 12     ecut=    50.00 Ry     beta= 0.60
     Davidson diagonalization with overlap
     ethr =  3.50E-04,  avg # of iterations =  3.4

     total cpu time spent up to now is      317.5 secs

     total energy              =    -585.69587827 Ry
     Harris-Foulkes estimate   =    -585.69608371 Ry
     estimated scf accuracy    <       0.12393051 Ry

     iteration # 13     ecut=    50.00 Ry     beta= 0.60
     Davidson diagonalization with overlap
     ethr =  2.00E-04,  avg # of iterations =  2.8

     total cpu time spent up to now is      338.7 secs

     total energy              =    -585.69750767 Ry
     Harris-Foulkes estimate   =    -585.69861133 Ry
     estimated scf accuracy    <       0.10508594 Ry

     iteration # 14     ecut=    50.00 Ry     beta= 0.60
     Davidson diagonalization with overlap
     ethr =  1.69E-04,  avg # of iterations =  1.4

     total cpu time spent up to now is      358.6 secs

     total energy              =    -585.69200708 Ry
     Harris-Foulkes estimate   =    -585.69892536 Ry
     estimated scf accuracy    <       0.08802553 Ry

     iteration # 15     ecut=    50.00 Ry     beta= 0.60
     Davidson diagonalization with overlap
     ethr =  1.42E-04,  avg # of iterations =  3.8

     total cpu time spent up to now is      381.6 secs

     total energy              =    -585.69471852 Ry
     Harris-Foulkes estimate   =    -585.69667466 Ry
     estimated scf accuracy    <       0.01249901 Ry

     iteration # 16     ecut=    50.00 Ry     beta= 0.60
     Davidson diagonalization with overlap
     c_bands:  1 eigenvalues not converged
     ethr =  2.02E-05,  avg # of iterations =  7.6

     total cpu time spent up to now is      415.3 secs

     total energy              =    -585.69517737 Ry
     Harris-Foulkes estimate   =    -585.69824265 Ry
     estimated scf accuracy    <       0.01630487 Ry

     iteration # 17     ecut=    50.00 Ry     beta= 0.60
     Davidson diagonalization with overlap
     ethr =  2.02E-05,  avg # of iterations =  4.8

     total cpu time spent up to now is      439.9 secs

     total energy              =    -585.69723393 Ry
     Harris-Foulkes estimate   =    -585.69796277 Ry
     estimated scf accuracy    <       0.00995583 Ry

     iteration # 18     ecut=    50.00 Ry     beta= 0.60
     Davidson diagonalization with overlap
     ethr =  1.61E-05,  avg # of iterations =  1.1

     total cpu time spent up to now is      459.6 secs

     total energy              =    -585.69700689 Ry
     Harris-Foulkes estimate   =    -585.69744809 Ry
     estimated scf accuracy    <       0.00370423 Ry

     iteration # 19     ecut=    50.00 Ry     beta= 0.60
     Davidson diagonalization with overlap
     ethr =  5.97E-06,  avg # of iterations =  3.5

     total cpu time spent up to now is      482.9 secs

     total energy              =    -585.69735141 Ry
     Harris-Foulkes estimate   =    -585.69735437 Ry
     estimated scf accuracy    <       0.00005855 Ry

     iteration # 20     ecut=    50.00 Ry     beta= 0.60
     Davidson diagonalization with overlap
     ethr =  9.44E-08,  avg # of iterations =  6.3

     total cpu time spent up to now is      518.0 secs

     total energy              =    -585.69736308 Ry
     Harris-Foulkes estimate   =    -585.69741120 Ry
     estimated scf accuracy    <       0.00039059 Ry

     iteration # 21     ecut=    50.00 Ry     beta= 0.60
     Davidson diagonalization with overlap
     ethr =  9.44E-08,  avg # of iterations =  4.8

     total cpu time spent up to now is      545.6 secs

     total energy              =    -585.69738704 Ry
     Harris-Foulkes estimate   =    -585.69738977 Ry
     estimated scf accuracy    <       0.00002933 Ry

     iteration # 22     ecut=    50.00 Ry     beta= 0.60
     Davidson diagonalization with overlap
     ethr =  4.73E-08,  avg # of iterations =  1.8

     total cpu time spent up to now is      566.0 secs

     total energy              =    -585.69738738 Ry
     Harris-Foulkes estimate   =    -585.69738821 Ry
     estimated scf accuracy    <       0.00001105 Ry

     iteration # 23     ecut=    50.00 Ry     beta= 0.60
     Davidson diagonalization with overlap
     ethr =  1.78E-08,  avg # of iterations =  4.0

     total cpu time spent up to now is      591.5 secs

     total energy              =    -585.69738767 Ry
     Harris-Foulkes estimate   =    -585.69738890 Ry
     estimated scf accuracy    <       0.00000950 Ry

     iteration # 24     ecut=    50.00 Ry     beta= 0.60
     Davidson diagonalization with overlap
     ethr =  1.53E-08,  avg # of iterations =  1.0

     total cpu time spent up to now is      611.1 secs

     total energy              =    -585.69738801 Ry
     Harris-Foulkes estimate   =    -585.69738809 Ry
     estimated scf accuracy    <       0.00000127 Ry

     iteration # 25     ecut=    50.00 Ry     beta= 0.60
     Davidson diagonalization with overlap
     ethr =  2.05E-09,  avg # of iterations =  4.0

     total cpu time spent up to now is      638.1 secs

     total energy              =    -585.69738828 Ry
     Harris-Foulkes estimate   =    -585.69738827 Ry
     estimated scf accuracy    <       0.00000003 Ry

     iteration # 26     ecut=    50.00 Ry     beta= 0.60
     Davidson diagonalization with overlap
     ethr =  4.48E-11,  avg # of iterations =  5.2

     total cpu time spent up to now is      667.7 secs

     total energy              =    -585.69738827 Ry
     Harris-Foulkes estimate   =    -585.69738829 Ry
     estimated scf accuracy    <       0.00000014 Ry

     iteration # 27     ecut=    50.00 Ry     beta= 0.60
     Davidson diagonalization with overlap
     ethr =  4.48E-11,  avg # of iterations =  3.5

     total cpu time spent up to now is      689.9 secs

     total energy              =    -585.69738827 Ry
     Harris-Foulkes estimate   =    -585.69738827 Ry
     estimated scf accuracy    <       0.00000004 Ry

     iteration # 28     ecut=    50.00 Ry     beta= 0.60
     Davidson diagonalization with overlap
     ethr =  4.48E-11,  avg # of iterations =  3.9

     total cpu time spent up to now is      715.1 secs

     total energy              =    -585.69738827 Ry
     Harris-Foulkes estimate   =    -585.69738828 Ry
     estimated scf accuracy    <          5.3E-09 Ry

     iteration # 29     ecut=    50.00 Ry     beta= 0.60
     Davidson diagonalization with overlap
     ethr =  8.61E-12,  avg # of iterations =  4.0

     total cpu time spent up to now is      738.2 secs

     total energy              =    -585.69738827 Ry
     Harris-Foulkes estimate   =    -585.69738828 Ry
     estimated scf accuracy    <          5.2E-09 Ry

     iteration # 30     ecut=    50.00 Ry     beta= 0.60
     Davidson diagonalization with overlap
     ethr =  8.42E-12,  avg # of iterations =  1.0

     total cpu time spent up to now is      757.8 secs

     total energy              =    -585.69738827 Ry
     Harris-Foulkes estimate   =    -585.69738827 Ry
     estimated scf accuracy    <          9.4E-10 Ry

     iteration # 31     ecut=    50.00 Ry     beta= 0.60
     Davidson diagonalization with overlap
     ethr =  1.51E-12,  avg # of iterations =  4.8

     total cpu time spent up to now is      786.5 secs

     total energy              =    -585.69738827 Ry
     Harris-Foulkes estimate   =    -585.69738828 Ry
     estimated scf accuracy    <          1.5E-09 Ry

     iteration # 32     ecut=    50.00 Ry     beta= 0.60
     Davidson diagonalization with overlap
     ethr =  1.51E-12,  avg # of iterations =  4.1

     total cpu time spent up to now is      810.3 secs

     total energy              =    -585.69738827 Ry
     Harris-Foulkes estimate   =    -585.69738827 Ry
     estimated scf accuracy    <          1.3E-10 Ry

     iteration # 33     ecut=    50.00 Ry     beta= 0.60
     Davidson diagonalization with overlap
     ethr =  2.08E-13,  avg # of iterations =  4.3

     total cpu time spent up to now is      836.4 secs

     End of self-consistent calculation

     Number of k-points >= 100: set verbosity='high' to print the bands.

     the Fermi energy is    11.7326 ev

!    total energy              =    -585.69738827 Ry
     Harris-Foulkes estimate   =    -585.69738827 Ry
     estimated scf accuracy    <          8.1E-11 Ry

     The total energy is the sum of the following terms:

     one-electron contribution =    -201.72395063 Ry
     hartree contribution      =     117.02733766 Ry
     xc contribution           =     -79.61827161 Ry
     ewald contribution        =    -421.38029016 Ry
     smearing contrib. (-TS)   =      -0.00221354 Ry

     convergence has been achieved in  33 iterations

     Forces acting on atoms (cartesian axes, Ry/au):

     atom    1 type  2   force =     0.00082654   -0.00082654   -0.00082654
     atom    2 type  2   force =    -0.00082654    0.00082654    0.00082654
     atom    3 type  1   force =    -0.00478905    0.00478905    0.00478905
     atom    4 type  2   force =     0.00000000    0.00000000    0.00000000
     atom    5 type  1   force =     0.00478905   -0.00478905   -0.00478905

     Total force =     0.011904     Total SCF correction =     0.000008


     Computing stress (Cartesian axis) and pressure

          total   stress  (Ry/bohr**3)                   (kbar)     P= -192.93
  -0.00131153  -0.00000841  -0.00000841       -192.93     -1.24     -1.24
  -0.00000841  -0.00131153   0.00000841         -1.24   -192.93      1.24
  -0.00000841   0.00000841  -0.00131153         -1.24      1.24   -192.93


     BFGS Geometry Optimization

     number of scf cycles    =   1
     number of bfgs steps    =   0

     enthalpy new            =    -585.6973882748 Ry

     new trust radius        =       0.1775896748 bohr
     new conv_thr            =            1.0E-10 Ry

     new unit-cell volume =    663.54633 a.u.^3 (    98.32742 Ang^3 )
     density =      5.56309 g/cm^3

CELL_PARAMETERS (alat=  1.88972599)
  -1.701867146   1.701867146   5.101905912
  -1.701867146   5.101905912   1.701867146
  -5.101905912   1.701867146   1.701867146

ATOMIC_POSITIONS (angstrom)
Ti      -3.401832850   3.401832850   3.401832850
Ti      -5.103807353   5.103807353   5.103807353
Nb      -6.806964388   6.806964388   6.806964388
Ti      -8.505640203   8.505640203   8.505640203
Nb      -1.698675815   1.698675815   1.698675815


     NEW-OLD atomic charge density approx. for the potential
     extrapolated charge   55.79464, renormalised to   62.00000

     total cpu time spent up to now is      848.3 secs

     Self-consistent Calculation

     iteration #  1     ecut=    50.00 Ry     beta= 0.60
     Davidson diagonalization with overlap
     c_bands:  1 eigenvalues not converged
     c_bands:  1 eigenvalues not converged
     c_bands:  1 eigenvalues not converged
     c_bands:  1 eigenvalues not converged
     c_bands:  1 eigenvalues not converged
     c_bands:  1 eigenvalues not converged
     c_bands:  1 eigenvalues not converged
     c_bands:  1 eigenvalues not converged
     c_bands:  1 eigenvalues not converged
     c_bands:  1 eigenvalues not converged
     c_bands:  1 eigenvalues not converged
     c_bands:  1 eigenvalues not converged
     c_bands:  1 eigenvalues not converged
     ethr =  1.00E-06,  avg # of iterations = 16.8

     total cpu time spent up to now is      932.6 secs

     total energy              =    -560.25628893 Ry
     Harris-Foulkes estimate   =    -600.39460185 Ry
     estimated scf accuracy    <      28.28980199 Ry

     iteration #  2     ecut=    50.00 Ry     beta= 0.60
     Davidson diagonalization with overlap
     ethr =  1.00E-02,  avg # of iterations =  6.0

     total cpu time spent up to now is      975.7 secs

     total energy              =    -582.79167857 Ry
     Harris-Foulkes estimate   =    -620.27251512 Ry
     estimated scf accuracy    <     111.37454470 Ry

     iteration #  3     ecut=    50.00 Ry     beta= 0.60
     Davidson diagonalization with overlap
     ethr =  1.00E-02,  avg # of iterations =  4.1

     total cpu time spent up to now is     1010.0 secs

     total energy              =    -587.45028240 Ry
     Harris-Foulkes estimate   =    -591.24919901 Ry
     estimated scf accuracy    <      17.55231628 Ry

     iteration #  4     ecut=    50.00 Ry     beta= 0.60
     Davidson diagonalization with overlap
     ethr =  1.00E-02,  avg # of iterations =  1.4

     total cpu time spent up to now is     1030.6 secs

     total energy              =    -585.21303179 Ry
     Harris-Foulkes estimate   =    -587.69988462 Ry
     estimated scf accuracy    <      10.08675712 Ry

     iteration #  5     ecut=    50.00 Ry     beta= 0.60
     Davidson diagonalization with overlap
     ethr =  1.00E-02,  avg # of iterations =  3.2

     total cpu time spent up to now is     1055.2 secs

     total energy              =    -586.33366931 Ry
     Harris-Foulkes estimate   =    -586.04741561 Ry
     estimated scf accuracy    <       1.24787203 Ry

     iteration #  6     ecut=    50.00 Ry     beta= 0.60
     Davidson diagonalization with overlap
     ethr =  2.01E-03,  avg # of iterations =  4.2

     total cpu time spent up to now is     1082.1 secs

     total energy              =    -586.46958038 Ry
     Harris-Foulkes estimate   =    -586.72013671 Ry
     estimated scf accuracy    <       4.61207115 Ry

     iteration #  7     ecut=    50.00 Ry     beta= 0.60
     Davidson diagonalization with overlap
     ethr =  2.01E-03,  avg # of iterations =  1.0

     total cpu time spent up to now is     1102.4 secs

     total energy              =    -586.11030245 Ry
     Harris-Foulkes estimate   =    -586.48062482 Ry
     estimated scf accuracy    <       4.15986214 Ry

     iteration #  8     ecut=    50.00 Ry     beta= 0.60
     Davidson diagonalization with overlap
     ethr =  2.01E-03,  avg # of iterations =  1.5

     total cpu time spent up to now is     1122.8 secs

     total energy              =    -586.13738468 Ry
     Harris-Foulkes estimate   =    -586.13652846 Ry
     estimated scf accuracy    <       2.93256491 Ry

     iteration #  9     ecut=    50.00 Ry     beta= 0.60
     Davidson diagonalization with overlap
     ethr =  2.01E-03,  avg # of iterations =  1.0

     total cpu time spent up to now is     1142.7 secs

     total energy              =    -585.82510822 Ry
     Harris-Foulkes estimate   =    -586.14417417 Ry
     estimated scf accuracy    <       2.82233291 Ry

     iteration # 10     ecut=    50.00 Ry     beta= 0.60
     Davidson diagonalization with overlap
     ethr =  2.01E-03,  avg # of iterations =  1.3

     total cpu time spent up to now is     1163.2 secs

     total energy              =    -585.28551186 Ry
     Harris-Foulkes estimate   =    -585.86066868 Ry
     estimated scf accuracy    <       1.45635859 Ry

     iteration # 11     ecut=    50.00 Ry     beta= 0.60
     Davidson diagonalization with overlap
     ethr =  2.01E-03,  avg # of iterations =  4.5

     total cpu time spent up to now is     1196.6 secs

     total energy              =    -586.20308584 Ry
     Harris-Foulkes estimate   =    -586.15118986 Ry
     estimated scf accuracy    <       5.45233737 Ry

     iteration # 12     ecut=    50.00 Ry     beta= 0.60
     Davidson diagonalization with overlap
     ethr =  2.01E-03,  avg # of iterations =  1.0

     total cpu time spent up to now is     1216.9 secs

     total energy              =    -586.33808658 Ry
     Harris-Foulkes estimate   =    -586.20749434 Ry
     estimated scf accuracy    <       5.99854295 Ry

     iteration # 13     ecut=    50.00 Ry     beta= 0.60
     Davidson diagonalization with overlap
     ethr =  2.01E-03,  avg # of iterations =  1.0

     total cpu time spent up to now is     1237.3 secs

     total energy              =    -586.49061239 Ry
     Harris-Foulkes estimate   =    -586.35129673 Ry
     estimated scf accuracy    <       7.34986105 Ry

     iteration # 14     ecut=    50.00 Ry     beta= 0.60
     Davidson diagonalization with overlap
     ethr =  2.01E-03,  avg # of iterations =  1.0

     total cpu time spent up to now is     1257.6 secs

     total energy              =    -586.44747934 Ry
     Harris-Foulkes estimate   =    -586.50336582 Ry
     estimated scf accuracy    <       8.20914122 Ry

     iteration # 15     ecut=    50.00 Ry     beta= 0.60
     Davidson diagonalization with overlap
     ethr =  2.01E-03,  avg # of iterations =  1.0

     total cpu time spent up to now is     1277.9 secs

     total energy              =    -586.24195483 Ry
     Harris-Foulkes estimate   =    -586.45058766 Ry
     estimated scf accuracy    <       8.03946988 Ry

     iteration # 16     ecut=    50.00 Ry     beta= 0.60
     Davidson diagonalization with overlap
     ethr =  2.01E-03,  avg # of iterations =  1.0

     total cpu time spent up to now is     1298.3 secs

     total energy              =    -585.30472106 Ry
     Harris-Foulkes estimate   =    -586.25136002 Ry
     estimated scf accuracy    <       6.80399477 Ry

     iteration # 17     ecut=    50.00 Ry     beta= 0.60
     Davidson diagonalization with overlap
     ethr =  2.01E-03,  avg # of iterations =  4.1

     total cpu time spent up to now is     1326.9 secs

     total energy              =    -585.76881254 Ry
     Harris-Foulkes estimate   =    -585.77325991 Ry
     estimated scf accuracy    <       0.03871084 Ry

     iteration # 18     ecut=    50.00 Ry     beta= 0.60
     Davidson diagonalization with overlap
     ethr =  6.24E-05,  avg # of iterations =  6.8

     total cpu time spent up to now is     1360.4 secs

     total energy              =    -585.77466051 Ry
     Harris-Foulkes estimate   =    -585.77698092 Ry
     estimated scf accuracy    <       0.01760783 Ry

     iteration # 19     ecut=    50.00 Ry     beta= 0.60
     Davidson diagonalization with overlap
     ethr =  2.84E-05,  avg # of iterations =  1.4

     total cpu time spent up to now is     1381.2 secs

     total energy              =    -585.77327074 Ry
     Harris-Foulkes estimate   =    -585.77519223 Ry
     estimated scf accuracy    <       0.00586165 Ry

     iteration # 20     ecut=    50.00 Ry     beta= 0.60
     Davidson diagonalization with overlap
     ethr =  9.45E-06,  avg # of iterations =  5.8

     total cpu time spent up to now is     1413.5 secs

     total energy              =    -585.77500592 Ry
     Harris-Foulkes estimate   =    -585.77523354 Ry
     estimated scf accuracy    <       0.00956391 Ry

     iteration # 21     ecut=    50.00 Ry     beta= 0.60
     Davidson diagonalization with overlap
     ethr =  9.45E-06,  avg # of iterations =  1.0

     total cpu time spent up to now is     1433.8 secs

     total energy              =    -585.77379911 Ry
     Harris-Foulkes estimate   =    -585.77503487 Ry
     estimated scf accuracy    <       0.00784881 Ry

     iteration # 22     ecut=    50.00 Ry     beta= 0.60
     Davidson diagonalization with overlap
     ethr =  9.45E-06,  avg # of iterations =  3.0

     total cpu time spent up to now is     1458.5 secs

     total energy              =    -585.77505315 Ry
     Harris-Foulkes estimate   =    -585.77475750 Ry
     estimated scf accuracy    <       0.00497524 Ry

     iteration # 23     ecut=    50.00 Ry     beta= 0.60
     Davidson diagonalization with overlap
     ethr =  8.02E-06,  avg # of iterations =  1.1

     total cpu time spent up to now is     1478.9 secs

     total energy              =    -585.77300468 Ry
     Harris-Foulkes estimate   =    -585.77513779 Ry
     estimated scf accuracy    <       0.00748690 Ry

     iteration # 24     ecut=    50.00 Ry     beta= 0.60
     Davidson diagonalization with overlap
     ethr =  8.02E-06,  avg # of iterations =  4.2

     total cpu time spent up to now is     1508.1 secs

     total energy              =    -585.77344815 Ry
     Harris-Foulkes estimate   =    -585.77541377 Ry
     estimated scf accuracy    <       0.01292568 Ry

     iteration # 25     ecut=    50.00 Ry     beta= 0.60
     Davidson diagonalization with overlap
     ethr =  8.02E-06,  avg # of iterations =  3.3

     total cpu time spent up to now is     1531.4 secs

     total energy              =    -585.77408738 Ry
     Harris-Foulkes estimate   =    -585.77411872 Ry
     estimated scf accuracy    <       0.00109223 Ry

     iteration # 26     ecut=    50.00 Ry     beta= 0.60
     Davidson diagonalization with overlap
     ethr =  1.76E-06,  avg # of iterations =  4.3

     total cpu time spent up to now is     1558.7 secs

     total energy              =    -585.77431185 Ry
     Harris-Foulkes estimate   =    -585.77431418 Ry
     estimated scf accuracy    <       0.00004518 Ry

     iteration # 27     ecut=    50.00 Ry     beta= 0.60
     Davidson diagonalization with overlap
     ethr =  7.29E-08,  avg # of iterations =  5.7

     total cpu time spent up to now is     1588.2 secs

     total energy              =    -585.77432311 Ry
     Harris-Foulkes estimate   =    -585.77432317 Ry
     estimated scf accuracy    <       0.00000594 Ry

     iteration # 28     ecut=    50.00 Ry     beta= 0.60
     Davidson diagonalization with overlap
     ethr =  9.58E-09,  avg # of iterations =  3.5

     total cpu time spent up to now is     1612.1 secs

     total energy              =    -585.77432297 Ry
     Harris-Foulkes estimate   =    -585.77432354 Ry
     estimated scf accuracy    <       0.00000551 Ry

     iteration # 29     ecut=    50.00 Ry     beta= 0.60
     Davidson diagonalization with overlap
     ethr =  8.89E-09,  avg # of iterations =  1.3

     total cpu time spent up to now is     1632.7 secs

     total energy              =    -585.77432302 Ry
     Harris-Foulkes estimate   =    -585.77432316 Ry
     estimated scf accuracy    <       0.00000144 Ry

     iteration # 30     ecut=    50.00 Ry     beta= 0.60
     Davidson diagonalization with overlap
     ethr =  2.33E-09,  avg # of iterations =  4.2

     total cpu time spent up to now is     1660.6 secs

     total energy              =    -585.77432328 Ry
     Harris-Foulkes estimate   =    -585.77432329 Ry
     estimated scf accuracy    <       0.00000013 Ry

     iteration # 31     ecut=    50.00 Ry     beta= 0.60
     Davidson diagonalization with overlap
     ethr =  2.16E-10,  avg # of iterations =  3.2

     total cpu time spent up to now is     1683.9 secs

     total energy              =    -585.77432329 Ry
     Harris-Foulkes estimate   =    -585.77432329 Ry
     estimated scf accuracy    <       0.00000012 Ry

     iteration # 32     ecut=    50.00 Ry     beta= 0.60
     Davidson diagonalization with overlap
     ethr =  1.96E-10,  avg # of iterations =  1.0

     total cpu time spent up to now is     1704.2 secs

     total energy              =    -585.77432328 Ry
     Harris-Foulkes estimate   =    -585.77432329 Ry
     estimated scf accuracy    <       0.00000009 Ry

     iteration # 33     ecut=    50.00 Ry     beta= 0.60
     Davidson diagonalization with overlap
     ethr =  1.40E-10,  avg # of iterations =  1.8

     total cpu time spent up to now is     1725.3 secs

     total energy              =    -585.77432328 Ry
     Harris-Foulkes estimate   =    -585.77432328 Ry
     estimated scf accuracy    <       0.00000003 Ry

     iteration # 34     ecut=    50.00 Ry     beta= 0.60
     Davidson diagonalization with overlap
     ethr =  4.94E-11,  avg # of iterations =  3.9

     total cpu time spent up to now is     1751.1 secs

     total energy              =    -585.77432328 Ry
     Harris-Foulkes estimate   =    -585.77432328 Ry
     estimated scf accuracy    <          3.7E-09 Ry

     iteration # 35     ecut=    50.00 Ry     beta= 0.60
     Davidson diagonalization with overlap
     ethr =  6.02E-12,  avg # of iterations =  3.5

     total cpu time spent up to now is     1775.2 secs

     total energy              =    -585.77432328 Ry
     Harris-Foulkes estimate   =    -585.77432328 Ry
     estimated scf accuracy    <          7.0E-10 Ry

     iteration # 36     ecut=    50.00 Ry     beta= 0.60
     Davidson diagonalization with overlap
     ethr =  1.13E-12,  avg # of iterations =  4.1

     total cpu time spent up to now is     1800.8 secs

     total energy              =    -585.77432328 Ry
     Harris-Foulkes estimate   =    -585.77432328 Ry
     estimated scf accuracy    <          3.8E-10 Ry

     iteration # 37     ecut=    50.00 Ry     beta= 0.60
     Davidson diagonalization with overlap
     ethr =  6.07E-13,  avg # of iterations =  1.3

     total cpu time spent up to now is     1821.4 secs

     End of self-consistent calculation

     Number of k-points >= 100: set verbosity='high' to print the bands.

     the Fermi energy is    13.2652 ev

!    total energy              =    -585.77432328 Ry
     Harris-Foulkes estimate   =    -585.77432328 Ry
     estimated scf accuracy    <          6.7E-11 Ry

     The total energy is the sum of the following terms:

     one-electron contribution =    -180.50648914 Ry
     hartree contribution      =     110.38721442 Ry
     xc contribution           =     -79.99354915 Ry
     ewald contribution        =    -435.65870277 Ry
     smearing contrib. (-TS)   =      -0.00279664 Ry

     convergence has been achieved in  37 iterations

     Forces acting on atoms (cartesian axes, Ry/au):

     atom    1 type  2   force =     0.00226618   -0.00226618   -0.00226618
     atom    2 type  2   force =    -0.00226618    0.00226618    0.00226618
     atom    3 type  1   force =    -0.00185968    0.00185968    0.00185968
     atom    4 type  2   force =     0.00000000    0.00000000    0.00000000
     atom    5 type  1   force =     0.00185968   -0.00185968   -0.00185968

     Total force =     0.007181     Total SCF correction =     0.000009


     Computing stress (Cartesian axis) and pressure

          total   stress  (Ry/bohr**3)                   (kbar)     P= -124.57
  -0.00084680  -0.00000537  -0.00000537       -124.57     -0.79     -0.79
  -0.00000537  -0.00084680   0.00000537         -0.79   -124.57      0.79
  -0.00000537   0.00000537  -0.00084680         -0.79      0.79   -124.57


     number of scf cycles    =   2
     number of bfgs steps    =   1

     enthalpy old            =    -585.6973882748 Ry
     enthalpy new            =    -585.7743232832 Ry

     CASE: enthalpy_new < enthalpy_old

     new trust radius        =       0.2619824640 bohr
     new conv_thr            =            1.0E-10 Ry

     new unit-cell volume =    567.38301 a.u.^3 (    84.07749 Ang^3 )
     density =      6.50596 g/cm^3

CELL_PARAMETERS (alat=  1.88972599)
  -1.617671725   1.617671725   4.843649025
  -1.617671725   4.843649025   1.617671725
  -4.843649025   1.617671725   1.617671725

ATOMIC_POSITIONS (angstrom)
Ti      -3.228548637   3.228548637   3.228548637
Ti      -4.850443838   4.850443838   4.850443838
Nb      -6.467698079   6.467698079   6.467698079
Ti      -8.078992475   8.078992475   8.078992475
Nb      -1.611294395   1.611294395   1.611294395


     NEW-OLD atomic charge density approx. for the potential
     extrapolated charge   52.00129, renormalised to   62.00000

     total cpu time spent up to now is     1834.1 secs

     Self-consistent Calculation

     iteration #  1     ecut=    50.00 Ry     beta= 0.60
     Davidson diagonalization with overlap
     c_bands:  1 eigenvalues not converged
     c_bands:  1 eigenvalues not converged
     c_bands:  1 eigenvalues not converged
     c_bands:  1 eigenvalues not converged
     c_bands:  1 eigenvalues not converged
     c_bands:  1 eigenvalues not converged
     c_bands:  1 eigenvalues not converged
     c_bands:  1 eigenvalues not converged
     ethr =  1.00E-06,  avg # of iterations = 14.5

     total cpu time spent up to now is     1910.2 secs

     total energy              =    -542.17127763 Ry
     Harris-Foulkes estimate   =    -607.11567970 Ry
     estimated scf accuracy    <      48.05273480 Ry

     iteration #  2     ecut=    50.00 Ry     beta= 0.60
     Davidson diagonalization with overlap
     ethr =  1.00E-02,  avg # of iterations =  6.5

     total cpu time spent up to now is     1955.3 secs

     total energy              =    -573.56734854 Ry
     Harris-Foulkes estimate   =    -639.25075317 Ry
     estimated scf accuracy    <     197.65923556 Ry

     iteration #  3     ecut=    50.00 Ry     beta= 0.60
     Davidson diagonalization with overlap
     ethr =  1.00E-02,  avg # of iterations =  4.0

     total cpu time spent up to now is     1990.8 secs

     total energy              =    -588.12699392 Ry
     Harris-Foulkes estimate   =    -593.05286527 Ry
     estimated scf accuracy    <      21.73159089 Ry

     iteration #  4     ecut=    50.00 Ry     beta= 0.60
     Davidson diagonalization with overlap
     ethr =  1.00E-02,  avg # of iterations =  2.1

     total cpu time spent up to now is     2012.3 secs

     total energy              =    -585.37050979 Ry
     Harris-Foulkes estimate   =    -588.51187697 Ry
     estimated scf accuracy    <      11.83947173 Ry

     iteration #  5     ecut=    50.00 Ry     beta= 0.60
     Davidson diagonalization with overlap
     ethr =  1.00E-02,  avg # of iterations =  3.3

     total cpu time spent up to now is     2037.4 secs

     total energy              =    -586.76035672 Ry
     Harris-Foulkes estimate   =    -586.32614661 Ry
     estimated scf accuracy    <       2.13002171 Ry

     iteration #  6     ecut=    50.00 Ry     beta= 0.60
     Davidson diagonalization with overlap
     ethr =  3.44E-03,  avg # of iterations =  3.8

     total cpu time spent up to now is     2063.3 secs

     total energy              =    -586.71347443 Ry
     Harris-Foulkes estimate   =    -587.42493133 Ry
     estimated scf accuracy    <       6.91377394 Ry

     iteration #  7     ecut=    50.00 Ry     beta= 0.60
     Davidson diagonalization with overlap
     ethr =  3.44E-03,  avg # of iterations =  1.0

     total cpu time spent up to now is     2083.5 secs

     total energy              =    -586.82724230 Ry
     Harris-Foulkes estimate   =    -586.74609324 Ry
     estimated scf accuracy    <       5.25442494 Ry

     iteration #  8     ecut=    50.00 Ry     beta= 0.60
     Davidson diagonalization with overlap
     ethr =  3.44E-03,  avg # of iterations =  1.0

     total cpu time spent up to now is     2103.4 secs

     total energy              =    -586.84559130 Ry
     Harris-Foulkes estimate   =    -586.83368634 Ry
     estimated scf accuracy    <       5.46038227 Ry

     iteration #  9     ecut=    50.00 Ry     beta= 0.60
     Davidson diagonalization with overlap
     ethr =  3.44E-03,  avg # of iterations =  1.0

     total cpu time spent up to now is     2123.4 secs

     total energy              =    -586.21618067 Ry
     Harris-Foulkes estimate   =    -586.84810290 Ry
     estimated scf accuracy    <       5.32236224 Ry

     iteration # 10     ecut=    50.00 Ry     beta= 0.60
     Davidson diagonalization with overlap
     ethr =  3.44E-03,  avg # of iterations =  1.0

     total cpu time spent up to now is     2143.6 secs

     total energy              =    -584.51371845 Ry
     Harris-Foulkes estimate   =    -586.26081098 Ry
     estimated scf accuracy    <       3.31920027 Ry

     iteration # 11     ecut=    50.00 Ry     beta= 0.60
     Davidson diagonalization with overlap
     ethr =  3.44E-03,  avg # of iterations =  5.1

     total cpu time spent up to now is     2181.2 secs

     total energy              =    -588.46211524 Ry
     Harris-Foulkes estimate   =    -588.51993341 Ry
     estimated scf accuracy    <      38.76432718 Ry

     iteration # 12     ecut=    50.00 Ry     beta= 0.60
     Davidson diagonalization with overlap
     ethr =  3.44E-03,  avg # of iterations =  1.0

     total cpu time spent up to now is     2201.5 secs

     total energy              =    -587.52490905 Ry
     Harris-Foulkes estimate   =    -588.46509453 Ry
     estimated scf accuracy    <      38.30182526 Ry

     iteration # 13     ecut=    50.00 Ry     beta= 0.60
     Davidson diagonalization with overlap
     ethr =  3.44E-03,  avg # of iterations =  1.0

     total cpu time spent up to now is     2221.7 secs

     total energy              =    -587.82767307 Ry
     Harris-Foulkes estimate   =    -587.58747982 Ry
     estimated scf accuracy    <      28.99079191 Ry

     iteration # 14     ecut=    50.00 Ry     beta= 0.60
     Davidson diagonalization with overlap
     ethr =  3.44E-03,  avg # of iterations =  1.0

     total cpu time spent up to now is     2241.9 secs

     total energy              =    -585.70418448 Ry
     Harris-Foulkes estimate   =    -587.83799249 Ry
     estimated scf accuracy    <      31.10607442 Ry

     iteration # 15     ecut=    50.00 Ry     beta= 0.60
     Davidson diagonalization with overlap
     ethr =  3.44E-03,  avg # of iterations =  4.0

     total cpu time spent up to now is     2267.7 secs

     total energy              =    -586.24208234 Ry
     Harris-Foulkes estimate   =    -586.26194483 Ry
     estimated scf accuracy    <       6.80213338 Ry

     iteration # 16     ecut=    50.00 Ry     beta= 0.60
     Davidson diagonalization with overlap
     ethr =  3.44E-03,  avg # of iterations =  1.1

     total cpu time spent up to now is     2288.0 secs

     total energy              =    -585.76935338 Ry
     Harris-Foulkes estimate   =    -586.25556625 Ry
     estimated scf accuracy    <       6.95099930 Ry

     iteration # 17     ecut=    50.00 Ry     beta= 0.60
     Davidson diagonalization with overlap
     ethr =  3.44E-03,  avg # of iterations =  2.3

     total cpu time spent up to now is     2309.5 secs

     total energy              =    -585.92832675 Ry
     Harris-Foulkes estimate   =    -585.88257232 Ry
     estimated scf accuracy    <       2.92221150 Ry

     iteration # 18     ecut=    50.00 Ry     beta= 0.60
     Davidson diagonalization with overlap
     ethr =  3.44E-03,  avg # of iterations =  1.1

     total cpu time spent up to now is     2329.8 secs

     total energy              =    -585.43243232 Ry
     Harris-Foulkes estimate   =    -585.95323425 Ry
     estimated scf accuracy    <       3.24618899 Ry

     iteration # 19     ecut=    50.00 Ry     beta= 0.60
     Davidson diagonalization with overlap
     ethr =  3.44E-03,  avg # of iterations =  4.3

     total cpu time spent up to now is     2356.6 secs

     total energy              =    -585.82719627 Ry
     Harris-Foulkes estimate   =    -585.89789051 Ry
     estimated scf accuracy    <       0.81690779 Ry

     iteration # 20     ecut=    50.00 Ry     beta= 0.60
     Davidson diagonalization with overlap
     ethr =  1.32E-03,  avg # of iterations =  1.9

     total cpu time spent up to now is     2377.7 secs

     total energy              =    -585.79132889 Ry
     Harris-Foulkes estimate   =    -585.84427334 Ry
     estimated scf accuracy    <       0.44870886 Ry

     iteration # 21     ecut=    50.00 Ry     beta= 0.60
     Davidson diagonalization with overlap
     ethr =  7.24E-04,  avg # of iterations =  1.5

     total cpu time spent up to now is     2398.3 secs

     total energy              =    -585.80281824 Ry
     Harris-Foulkes estimate   =    -585.80648329 Ry
     estimated scf accuracy    <       0.11540022 Ry

     iteration # 22     ecut=    50.00 Ry     beta= 0.60
     Davidson diagonalization with overlap
     ethr =  1.86E-04,  avg # of iterations =  4.2

     total cpu time spent up to now is     2422.8 secs

     total energy              =    -585.79391833 Ry
     Harris-Foulkes estimate   =    -585.80938115 Ry
     estimated scf accuracy    <       0.06546739 Ry

     iteration # 23     ecut=    50.00 Ry     beta= 0.60
     Davidson diagonalization with overlap
     ethr =  1.06E-04,  avg # of iterations =  4.7

     total cpu time spent up to now is     2450.4 secs

     total energy              =    -585.80176279 Ry
     Harris-Foulkes estimate   =    -585.80542143 Ry
     estimated scf accuracy    <       0.01837982 Ry

     iteration # 24     ecut=    50.00 Ry     beta= 0.60
     Davidson diagonalization with overlap
     ethr =  2.96E-05,  avg # of iterations =  3.8

     total cpu time spent up to now is     2474.1 secs

     total energy              =    -585.80335260 Ry
     Harris-Foulkes estimate   =    -585.80365328 Ry
     estimated scf accuracy    <       0.00199157 Ry

     iteration # 25     ecut=    50.00 Ry     beta= 0.60
     Davidson diagonalization with overlap
     ethr =  3.21E-06,  avg # of iterations =  6.6

     total cpu time spent up to now is     2508.6 secs

     total energy              =    -585.80359469 Ry
     Harris-Foulkes estimate   =    -585.80412884 Ry
     estimated scf accuracy    <       0.00225351 Ry

     iteration # 26     ecut=    50.00 Ry     beta= 0.60
     Davidson diagonalization with overlap
     ethr =  3.21E-06,  avg # of iterations =  3.8

     total cpu time spent up to now is     2534.8 secs

     total energy              =    -585.80385782 Ry
     Harris-Foulkes estimate   =    -585.80410925 Ry
     estimated scf accuracy    <       0.00166488 Ry

     iteration # 27     ecut=    50.00 Ry     beta= 0.60
     Davidson diagonalization with overlap
     ethr =  2.69E-06,  avg # of iterations =  1.0

     total cpu time spent up to now is     2555.0 secs

     total energy              =    -585.80390938 Ry
     Harris-Foulkes estimate   =    -585.80394143 Ry
     estimated scf accuracy    <       0.00018151 Ry

     iteration # 28     ecut=    50.00 Ry     beta= 0.60
     Davidson diagonalization with overlap
     ethr =  2.93E-07,  avg # of iterations =  4.0

     total cpu time spent up to now is     2583.5 secs

     total energy              =    -585.80396797 Ry
     Harris-Foulkes estimate   =    -585.80397929 Ry
     estimated scf accuracy    <       0.00010797 Ry

     iteration # 29     ecut=    50.00 Ry     beta= 0.60
     Davidson diagonalization with overlap
     ethr =  1.74E-07,  avg # of iterations =  1.0

     total cpu time spent up to now is     2603.8 secs

     total energy              =    -585.80396719 Ry
     Harris-Foulkes estimate   =    -585.80397076 Ry
     estimated scf accuracy    <       0.00003195 Ry

     iteration # 30     ecut=    50.00 Ry     beta= 0.60
     Davidson diagonalization with overlap
     ethr =  5.15E-08,  avg # of iterations =  3.0

     total cpu time spent up to now is     2626.7 secs

     total energy              =    -585.80396939 Ry
     Harris-Foulkes estimate   =    -585.80396944 Ry
     estimated scf accuracy    <       0.00000296 Ry

     iteration # 31     ecut=    50.00 Ry     beta= 0.60
     Davidson diagonalization with overlap
     ethr =  4.78E-09,  avg # of iterations =  4.4

     total cpu time spent up to now is     2654.5 secs

     total energy              =    -585.80397023 Ry
     Harris-Foulkes estimate   =    -585.80397028 Ry
     estimated scf accuracy    <       0.00000034 Ry

     iteration # 32     ecut=    50.00 Ry     beta= 0.60
     Davidson diagonalization with overlap
     ethr =  5.48E-10,  avg # of iterations =  3.8

     total cpu time spent up to now is     2679.7 secs

     total energy              =    -585.80397027 Ry
     Harris-Foulkes estimate   =    -585.80397027 Ry
     estimated scf accuracy    <       0.00000003 Ry

     iteration # 33     ecut=    50.00 Ry     beta= 0.60
     Davidson diagonalization with overlap
     ethr =  5.64E-11,  avg # of iterations =  4.2

     total cpu time spent up to now is     2708.4 secs

     total energy              =    -585.80397027 Ry
     Harris-Foulkes estimate   =    -585.80397028 Ry
     estimated scf accuracy    <       0.00000013 Ry

     iteration # 34     ecut=    50.00 Ry     beta= 0.60
     Davidson diagonalization with overlap
     ethr =  5.64E-11,  avg # of iterations =  1.1

     total cpu time spent up to now is     2728.7 secs

     total energy              =    -585.80397027 Ry
     Harris-Foulkes estimate   =    -585.80397027 Ry
     estimated scf accuracy    <       0.00000005 Ry

     iteration # 35     ecut=    50.00 Ry     beta= 0.60
     Davidson diagonalization with overlap
     ethr =  5.64E-11,  avg # of iterations =  3.0

     total cpu time spent up to now is     2753.9 secs

     total energy              =    -585.80397027 Ry
     Harris-Foulkes estimate   =    -585.80397027 Ry
     estimated scf accuracy    <          1.5E-09 Ry

     iteration # 36     ecut=    50.00 Ry     beta= 0.60
     Davidson diagonalization with overlap
     ethr =  2.44E-12,  avg # of iterations =  3.4

     total cpu time spent up to now is     2778.2 secs

     total energy              =    -585.80397027 Ry
     Harris-Foulkes estimate   =    -585.80397027 Ry
     estimated scf accuracy    <          9.0E-10 Ry

     iteration # 37     ecut=    50.00 Ry     beta= 0.60
     Davidson diagonalization with overlap
     ethr =  1.46E-12,  avg # of iterations =  3.6

     total cpu time spent up to now is     2802.2 secs

     total energy              =    -585.80397027 Ry
     Harris-Foulkes estimate   =    -585.80397027 Ry
     estimated scf accuracy    <          6.1E-10 Ry

     iteration # 38     ecut=    50.00 Ry     beta= 0.60
     Davidson diagonalization with overlap
     ethr =  9.91E-13,  avg # of iterations =  1.5

     total cpu time spent up to now is     2822.8 secs

     total energy              =    -585.80397027 Ry
     Harris-Foulkes estimate   =    -585.80397027 Ry
     estimated scf accuracy    <          1.3E-10 Ry

     iteration # 39     ecut=    50.00 Ry     beta= 0.60
     Davidson diagonalization with overlap
     ethr =  2.05E-13,  avg # of iterations =  4.0

     total cpu time spent up to now is     2850.7 secs

     End of self-consistent calculation

     Number of k-points >= 100: set verbosity='high' to print the bands.

     the Fermi energy is    15.9628 ev

!    total energy              =    -585.80397027 Ry
     Harris-Foulkes estimate   =    -585.80397027 Ry
     estimated scf accuracy    <          5.5E-11 Ry

     The total energy is the sum of the following terms:

     one-electron contribution =    -146.39122359 Ry
     hartree contribution      =     100.27473075 Ry
     xc contribution           =     -80.68672508 Ry
     ewald contribution        =    -458.99794417 Ry
     smearing contrib. (-TS)   =      -0.00280818 Ry

     convergence has been achieved in  39 iterations

     Forces acting on atoms (cartesian axes, Ry/au):

     atom    1 type  2   force =     0.00487610   -0.00487610   -0.00487610
     atom    2 type  2   force =    -0.00487610    0.00487610    0.00487610
     atom    3 type  1   force =     0.00351435   -0.00351435   -0.00351435
     atom    4 type  2   force =     0.00000000    0.00000000   -0.00000000
     atom    5 type  1   force =    -0.00351435    0.00351435    0.00351435

     Total force =     0.014723     Total SCF correction =     0.000012


     Computing stress (Cartesian axis) and pressure

          total   stress  (Ry/bohr**3)                   (kbar)     P=   56.08
   0.00038123   0.00000558   0.00000558         56.08      0.82      0.82
   0.00000558   0.00038123  -0.00000558          0.82     56.08     -0.82
   0.00000558  -0.00000558   0.00038123          0.82     -0.82     56.08


     number of scf cycles    =   3
     number of bfgs steps    =   2

     enthalpy old            =    -585.7743232832 Ry
     enthalpy new            =    -585.8039702714 Ry

     CASE: enthalpy_new < enthalpy_old

     new trust radius        =       0.0732677498 bohr
     new conv_thr            =            1.0E-10 Ry

     new unit-cell volume =    593.96293 a.u.^3 (    88.01622 Ang^3 )
     density =      6.21481 g/cm^3

CELL_PARAMETERS (alat=  1.88972599)
  -1.641490860   1.641490860   4.917604567
  -1.641490860   4.917604567   1.641490860
  -4.917604567   1.641490860   1.641490860

ATOMIC_POSITIONS (angstrom)
Ti      -3.276025097   3.276025097   3.276025097
Ti      -4.924561191   4.924561191   4.924561191
Nb      -6.563529553   6.563529553   6.563529553
Ti      -8.200586288   8.200586288   8.200586288
Nb      -1.637056735   1.637056735   1.637056735


     NEW-OLD atomic charge density approx. for the potential
     extrapolated charge   64.64001, renormalised to   62.00000

     total cpu time spent up to now is     2863.5 secs

     Self-consistent Calculation

     iteration #  1     ecut=    50.00 Ry     beta= 0.60
     Davidson diagonalization with overlap
     ethr =  1.00E-06,  avg # of iterations = 12.0

     total cpu time spent up to now is     2929.1 secs

     total energy              =    -585.14832571 Ry
     Harris-Foulkes estimate   =    -581.14171555 Ry
     estimated scf accuracy    <       0.55341694 Ry

     iteration #  2     ecut=    50.00 Ry     beta= 0.60
     Davidson diagonalization with overlap
     ethr =  8.93E-04,  avg # of iterations =  5.5

     total cpu time spent up to now is     2971.0 secs

     total energy              =    -584.91151318 Ry
     Harris-Foulkes estimate   =    -587.14842598 Ry
     estimated scf accuracy    <      14.20198934 Ry

     iteration #  3     ecut=    50.00 Ry     beta= 0.60
     Davidson diagonalization with overlap
     ethr =  8.93E-04,  avg # of iterations =  5.1

     total cpu time spent up to now is     3006.8 secs

     total energy              =    -585.74256448 Ry
     Harris-Foulkes estimate   =    -585.94349538 Ry
     estimated scf accuracy    <       0.71500772 Ry

     iteration #  4     ecut=    50.00 Ry     beta= 0.60
     Davidson diagonalization with overlap
     ethr =  8.93E-04,  avg # of iterations =  4.7

     total cpu time spent up to now is     3035.3 secs

     total energy              =    -585.77454565 Ry
     Harris-Foulkes estimate   =    -585.89742843 Ry
     estimated scf accuracy    <       1.24056549 Ry

     iteration #  5     ecut=    50.00 Ry     beta= 0.60
     Davidson diagonalization with overlap
     ethr =  8.93E-04,  avg # of iterations =  1.2

     total cpu time spent up to now is     3055.3 secs

     total energy              =    -585.80807265 Ry
     Harris-Foulkes estimate   =    -585.81940546 Ry
     estimated scf accuracy    <       0.17784497 Ry

     iteration #  6     ecut=    50.00 Ry     beta= 0.60
     Davidson diagonalization with overlap
     ethr =  2.87E-04,  avg # of iterations =  4.5

     total cpu time spent up to now is     3080.5 secs

     total energy              =    -585.81910021 Ry
     Harris-Foulkes estimate   =    -585.82701177 Ry
     estimated scf accuracy    <       0.11775604 Ry

     iteration #  7     ecut=    50.00 Ry     beta= 0.60
     Davidson diagonalization with overlap
     ethr =  1.90E-04,  avg # of iterations =  1.5

     total cpu time spent up to now is     3101.2 secs

     total energy              =    -585.80899620 Ry
     Harris-Foulkes estimate   =    -585.82054007 Ry
     estimated scf accuracy    <       0.08265750 Ry

     iteration #  8     ecut=    50.00 Ry     beta= 0.60
     Davidson diagonalization with overlap
     ethr =  1.33E-04,  avg # of iterations =  2.2

     total cpu time spent up to now is     3122.2 secs

     total energy              =    -585.80846026 Ry
     Harris-Foulkes estimate   =    -585.81126541 Ry
     estimated scf accuracy    <       0.03077212 Ry

     iteration #  9     ecut=    50.00 Ry     beta= 0.60
     Davidson diagonalization with overlap
     ethr =  4.96E-05,  avg # of iterations =  3.4

     total cpu time spent up to now is     3144.6 secs

     total energy              =    -585.80770885 Ry
     Harris-Foulkes estimate   =    -585.80952501 Ry
     estimated scf accuracy    <       0.01644131 Ry

     iteration # 10     ecut=    50.00 Ry     beta= 0.60
     Davidson diagonalization with overlap
     ethr =  2.65E-05,  avg # of iterations =  3.9

     total cpu time spent up to now is     3168.7 secs

     total energy              =    -585.80731991 Ry
     Harris-Foulkes estimate   =    -585.80882739 Ry
     estimated scf accuracy    <       0.00480137 Ry

     iteration # 11     ecut=    50.00 Ry     beta= 0.60
     Davidson diagonalization with overlap
     c_bands:  1 eigenvalues not converged
     ethr =  7.74E-06,  avg # of iterations =  5.9

     total cpu time spent up to now is     3199.4 secs

     total energy              =    -585.80806795 Ry
     Harris-Foulkes estimate   =    -585.80831716 Ry
     estimated scf accuracy    <       0.00104959 Ry

     iteration # 12     ecut=    50.00 Ry     beta= 0.60
     Davidson diagonalization with overlap
     ethr =  1.69E-06,  avg # of iterations =  4.9

     total cpu time spent up to now is     3226.7 secs

     total energy              =    -585.80824004 Ry
     Harris-Foulkes estimate   =    -585.80829723 Ry
     estimated scf accuracy    <       0.00080327 Ry

     iteration # 13     ecut=    50.00 Ry     beta= 0.60
     Davidson diagonalization with overlap
     ethr =  1.30E-06,  avg # of iterations =  1.1

     total cpu time spent up to now is     3247.0 secs

     total energy              =    -585.80820409 Ry
     Harris-Foulkes estimate   =    -585.80825562 Ry
     estimated scf accuracy    <       0.00043016 Ry

     iteration # 14     ecut=    50.00 Ry     beta= 0.60
     Davidson diagonalization with overlap
     ethr =  6.94E-07,  avg # of iterations =  2.4

     total cpu time spent up to now is     3268.9 secs

     total energy              =    -585.80822452 Ry
     Harris-Foulkes estimate   =    -585.80822667 Ry
     estimated scf accuracy    <       0.00009556 Ry

     iteration # 15     ecut=    50.00 Ry     beta= 0.60
     Davidson diagonalization with overlap
     ethr =  1.54E-07,  avg # of iterations =  3.3

     total cpu time spent up to now is     3292.3 secs

     total energy              =    -585.80822798 Ry
     Harris-Foulkes estimate   =    -585.80823014 Ry
     estimated scf accuracy    <       0.00007049 Ry

     iteration # 16     ecut=    50.00 Ry     beta= 0.60
     Davidson diagonalization with overlap
     ethr =  1.14E-07,  avg # of iterations =  1.0

     total cpu time spent up to now is     3312.5 secs

     total energy              =    -585.80822071 Ry
     Harris-Foulkes estimate   =    -585.80822900 Ry
     estimated scf accuracy    <       0.00005229 Ry

     iteration # 17     ecut=    50.00 Ry     beta= 0.60
     Davidson diagonalization with overlap
     ethr =  8.43E-08,  avg # of iterations =  3.5

     total cpu time spent up to now is     3336.5 secs

     total energy              =    -585.80822578 Ry
     Harris-Foulkes estimate   =    -585.80822604 Ry
     estimated scf accuracy    <       0.00000397 Ry

     iteration # 18     ecut=    50.00 Ry     beta= 0.60
     Davidson diagonalization with overlap
     ethr =  6.40E-09,  avg # of iterations =  4.4

     total cpu time spent up to now is     3363.4 secs

     total energy              =    -585.80822602 Ry
     Harris-Foulkes estimate   =    -585.80822661 Ry
     estimated scf accuracy    <       0.00000233 Ry

     iteration # 19     ecut=    50.00 Ry     beta= 0.60
     Davidson diagonalization with overlap
     ethr =  3.75E-09,  avg # of iterations =  4.2

     total cpu time spent up to now is     3389.3 secs

     total energy              =    -585.80822643 Ry
     Harris-Foulkes estimate   =    -585.80822660 Ry
     estimated scf accuracy    <       0.00000194 Ry

     iteration # 20     ecut=    50.00 Ry     beta= 0.60
     Davidson diagonalization with overlap
     ethr =  3.13E-09,  avg # of iterations =  1.0

     total cpu time spent up to now is     3409.5 secs

     total energy              =    -585.80822642 Ry
     Harris-Foulkes estimate   =    -585.80822648 Ry
     estimated scf accuracy    <       0.00000065 Ry

     iteration # 21     ecut=    50.00 Ry     beta= 0.60
     Davidson diagonalization with overlap
     ethr =  1.04E-09,  avg # of iterations =  3.1

     total cpu time spent up to now is     3432.4 secs

     total energy              =    -585.80822646 Ry
     Harris-Foulkes estimate   =    -585.80822646 Ry
     estimated scf accuracy    <       0.00000004 Ry

     iteration # 22     ecut=    50.00 Ry     beta= 0.60
     Davidson diagonalization with overlap
     ethr =  6.90E-11,  avg # of iterations =  4.7

     total cpu time spent up to now is     3460.6 secs

     total energy              =    -585.80822647 Ry
     Harris-Foulkes estimate   =    -585.80822647 Ry
     estimated scf accuracy    <          3.4E-09 Ry

     iteration # 23     ecut=    50.00 Ry     beta= 0.60
     Davidson diagonalization with overlap
     ethr =  5.54E-12,  avg # of iterations =  2.9

     total cpu time spent up to now is     3483.9 secs

     total energy              =    -585.80822647 Ry
     Harris-Foulkes estimate   =    -585.80822647 Ry
     estimated scf accuracy    <          3.3E-09 Ry

     iteration # 24     ecut=    50.00 Ry     beta= 0.60
     Davidson diagonalization with overlap
     ethr =  5.35E-12,  avg # of iterations =  2.9

     total cpu time spent up to now is     3506.1 secs

     total energy              =    -585.80822647 Ry
     Harris-Foulkes estimate   =    -585.80822647 Ry
     estimated scf accuracy    <          2.7E-09 Ry

     iteration # 25     ecut=    50.00 Ry     beta= 0.60
     Davidson diagonalization with overlap
     ethr =  4.30E-12,  avg # of iterations =  1.0

     total cpu time spent up to now is     3526.3 secs

     total energy              =    -585.80822647 Ry
     Harris-Foulkes estimate   =    -585.80822647 Ry
     estimated scf accuracy    <          2.0E-09 Ry

     iteration # 26     ecut=    50.00 Ry     beta= 0.60
     Davidson diagonalization with overlap
     ethr =  3.15E-12,  avg # of iterations =  2.9

     total cpu time spent up to now is     3548.5 secs

     End of self-consistent calculation

     Number of k-points >= 100: set verbosity='high' to print the bands.

     the Fermi energy is    15.1327 ev

!    total energy              =    -585.80822647 Ry
     Harris-Foulkes estimate   =    -585.80822647 Ry
     estimated scf accuracy    <          7.6E-12 Ry

     The total energy is the sum of the following terms:

     one-electron contribution =    -156.47005906 Ry
     hartree contribution      =     103.18839557 Ry
     xc contribution           =     -80.47001767 Ry
     ewald contribution        =    -452.05377354 Ry
     smearing contrib. (-TS)   =      -0.00277177 Ry

     convergence has been achieved in  26 iterations

     Forces acting on atoms (cartesian axes, Ry/au):

     atom    1 type  2   force =     0.00374644   -0.00374644   -0.00374644
     atom    2 type  2   force =    -0.00374644    0.00374644    0.00374644
     atom    3 type  1   force =     0.00167802   -0.00167802   -0.00167802
     atom    4 type  2   force =     0.00000000   -0.00000000    0.00000000
     atom    5 type  1   force =    -0.00167802    0.00167802    0.00167802

     Total force =     0.010055     Total SCF correction =     0.000003


     Computing stress (Cartesian axis) and pressure

          total   stress  (Ry/bohr**3)                   (kbar)     P=   -7.90
  -0.00005371   0.00000088   0.00000088         -7.90      0.13      0.13
   0.00000088  -0.00005371  -0.00000088          0.13     -7.90     -0.13
   0.00000088  -0.00000088  -0.00005371          0.13     -0.13     -7.90


     number of scf cycles    =   4
     number of bfgs steps    =   3

     enthalpy old            =    -585.8039702714 Ry
     enthalpy new            =    -585.8082264660 Ry

     CASE: enthalpy_new < enthalpy_old

     new trust radius        =       0.0090913913 bohr
     new conv_thr            =            1.0E-10 Ry

     new unit-cell volume =    590.64580 a.u.^3 (    87.52468 Ang^3 )
     density =      6.24972 g/cm^3

CELL_PARAMETERS (alat=  1.88972599)
  -1.638330243   1.638330243   4.908383330
  -1.638330243   4.908383330   1.638330243
  -4.908383330   1.638330243   1.638330243

ATOMIC_POSITIONS (angstrom)
Ti      -3.268145351   3.268145351   3.268145351
Ti      -4.916898465   4.916898465   4.916898465
Nb      -6.550388954   6.550388954   6.550388954
Ti      -8.185043816   8.185043816   8.185043816
Nb      -1.634654862   1.634654862   1.634654862


     NEW-OLD atomic charge density approx. for the potential
     extrapolated charge   61.66868, renormalised to   62.00000

     total cpu time spent up to now is     3561.3 secs

     Self-consistent Calculation

     iteration #  1     ecut=    50.00 Ry     beta= 0.60
     Davidson diagonalization with overlap
     ethr =  1.00E-06,  avg # of iterations =  5.4

     total cpu time spent up to now is     3603.8 secs

     total energy              =    -585.78996365 Ry
     Harris-Foulkes estimate   =    -586.40597355 Ry
     estimated scf accuracy    <       0.01770727 Ry

     iteration #  2     ecut=    50.00 Ry     beta= 0.60
     Davidson diagonalization with overlap
     ethr =  2.86E-05,  avg # of iterations =  5.3

     total cpu time spent up to now is     3644.5 secs

     total energy              =    -585.77856083 Ry
     Harris-Foulkes estimate   =    -585.85524408 Ry
     estimated scf accuracy    <       0.49279247 Ry

     iteration #  3     ecut=    50.00 Ry     beta= 0.60
     Davidson diagonalization with overlap
     ethr =  2.86E-05,  avg # of iterations =  5.6

     total cpu time spent up to now is     3679.8 secs

     total energy              =    -585.80831322 Ry
     Harris-Foulkes estimate   =    -585.81157443 Ry
     estimated scf accuracy    <       0.01092197 Ry

     iteration #  4     ecut=    50.00 Ry     beta= 0.60
     Davidson diagonalization with overlap
     ethr =  1.76E-05,  avg # of iterations =  3.5

     total cpu time spent up to now is     3703.1 secs

     total energy              =    -585.80871531 Ry
     Harris-Foulkes estimate   =    -585.80963577 Ry
     estimated scf accuracy    <       0.00993551 Ry

     iteration #  5     ecut=    50.00 Ry     beta= 0.60
     Davidson diagonalization with overlap
     ethr =  1.60E-05,  avg # of iterations =  1.0

     total cpu time spent up to now is     3722.9 secs

     total energy              =    -585.80846029 Ry
     Harris-Foulkes estimate   =    -585.80909007 Ry
     estimated scf accuracy    <       0.00542557 Ry

     iteration #  6     ecut=    50.00 Ry     beta= 0.60
     Davidson diagonalization with overlap
     ethr =  8.75E-06,  avg # of iterations =  1.9

     total cpu time spent up to now is     3743.5 secs

     total energy              =    -585.80838533 Ry
     Harris-Foulkes estimate   =    -585.80860302 Ry
     estimated scf accuracy    <       0.00254610 Ry

     iteration #  7     ecut=    50.00 Ry     beta= 0.60
     Davidson diagonalization with overlap
     ethr =  4.11E-06,  avg # of iterations =  2.8

     total cpu time spent up to now is     3765.7 secs

     total energy              =    -585.80835484 Ry
     Harris-Foulkes estimate   =    -585.80849383 Ry
     estimated scf accuracy    <       0.00121685 Ry

     iteration #  8     ecut=    50.00 Ry     beta= 0.60
     Davidson diagonalization with overlap
     ethr =  1.96E-06,  avg # of iterations =  2.6

     total cpu time spent up to now is     3787.2 secs

     total energy              =    -585.80836107 Ry
     Harris-Foulkes estimate   =    -585.80840404 Ry
     estimated scf accuracy    <       0.00041951 Ry

     iteration #  9     ecut=    50.00 Ry     beta= 0.60
     Davidson diagonalization with overlap
     ethr =  6.77E-07,  avg # of iterations =  3.8

     total cpu time spent up to now is     3812.5 secs

     total energy              =    -585.80839990 Ry
     Harris-Foulkes estimate   =    -585.80841278 Ry
     estimated scf accuracy    <       0.00004453 Ry

     iteration # 10     ecut=    50.00 Ry     beta= 0.60
     Davidson diagonalization with overlap
     ethr =  7.18E-08,  avg # of iterations =  4.2

     total cpu time spent up to now is     3838.5 secs

     total energy              =    -585.80840544 Ry
     Harris-Foulkes estimate   =    -585.80840709 Ry
     estimated scf accuracy    <       0.00000299 Ry

     iteration # 11     ecut=    50.00 Ry     beta= 0.60
     Davidson diagonalization with overlap
     ethr =  4.82E-09,  avg # of iterations =  5.0

     total cpu time spent up to now is     3872.2 secs

     total energy              =    -585.80840681 Ry
     Harris-Foulkes estimate   =    -585.80840721 Ry
     estimated scf accuracy    <       0.00000514 Ry

     iteration # 12     ecut=    50.00 Ry     beta= 0.60
     Davidson diagonalization with overlap
     ethr =  4.82E-09,  avg # of iterations =  1.0

     total cpu time spent up to now is     3892.4 secs

     total energy              =    -585.80840666 Ry
     Harris-Foulkes estimate   =    -585.80840689 Ry
     estimated scf accuracy    <       0.00000212 Ry

     iteration # 13     ecut=    50.00 Ry     beta= 0.60
     Davidson diagonalization with overlap
     ethr =  3.42E-09,  avg # of iterations =  2.6

     total cpu time spent up to now is     3914.3 secs

     total energy              =    -585.80840670 Ry
     Harris-Foulkes estimate   =    -585.80840677 Ry
     estimated scf accuracy    <       0.00000040 Ry

     iteration # 14     ecut=    50.00 Ry     beta= 0.60
     Davidson diagonalization with overlap
     ethr =  6.38E-10,  avg # of iterations =  4.1

     total cpu time spent up to now is     3942.3 secs

     total energy              =    -585.80840674 Ry
     Harris-Foulkes estimate   =    -585.80840680 Ry
     estimated scf accuracy    <       0.00000038 Ry

     iteration # 15     ecut=    50.00 Ry     beta= 0.60
     Davidson diagonalization with overlap
     ethr =  6.05E-10,  avg # of iterations =  1.0

     total cpu time spent up to now is     3962.5 secs

     total energy              =    -585.80840673 Ry
     Harris-Foulkes estimate   =    -585.80840675 Ry
     estimated scf accuracy    <       0.00000007 Ry

     iteration # 16     ecut=    50.00 Ry     beta= 0.60
     Davidson diagonalization with overlap
     ethr =  1.06E-10,  avg # of iterations =  4.2

     total cpu time spent up to now is     3991.9 secs

     total energy              =    -585.80840676 Ry
     Harris-Foulkes estimate   =    -585.80840678 Ry
     estimated scf accuracy    <       0.00000033 Ry

     iteration # 17     ecut=    50.00 Ry     beta= 0.60
     Davidson diagonalization with overlap
     ethr =  1.06E-10,  avg # of iterations =  3.9

     total cpu time spent up to now is     4018.4 secs

     total energy              =    -585.80840675 Ry
     Harris-Foulkes estimate   =    -585.80840677 Ry
     estimated scf accuracy    <       0.00000012 Ry

     iteration # 18     ecut=    50.00 Ry     beta= 0.60
     Davidson diagonalization with overlap
     ethr =  1.06E-10,  avg # of iterations =  3.0

     total cpu time spent up to now is     4042.1 secs

     total energy              =    -585.80840675 Ry
     Harris-Foulkes estimate   =    -585.80840676 Ry
     estimated scf accuracy    <       0.00000004 Ry

     iteration # 19     ecut=    50.00 Ry     beta= 0.60
     Davidson diagonalization with overlap
     ethr =  6.29E-11,  avg # of iterations =  3.8

     total cpu time spent up to now is     4068.5 secs

     total energy              =    -585.80840676 Ry
     Harris-Foulkes estimate   =    -585.80840676 Ry
     estimated scf accuracy    <          9.6E-09 Ry

     iteration # 20     ecut=    50.00 Ry     beta= 0.60
     Davidson diagonalization with overlap
     ethr =  1.54E-11,  avg # of iterations =  1.7

     total cpu time spent up to now is     4089.4 secs

     total energy              =    -585.80840676 Ry
     Harris-Foulkes estimate   =    -585.80840676 Ry
     estimated scf accuracy    <          1.7E-09 Ry

     iteration # 21     ecut=    50.00 Ry     beta= 0.60
     Davidson diagonalization with overlap
     ethr =  2.68E-12,  avg # of iterations =  4.0

     total cpu time spent up to now is     4116.9 secs

     total energy              =    -585.80840676 Ry
     Harris-Foulkes estimate   =    -585.80840676 Ry
     estimated scf accuracy    <          1.1E-10 Ry

     iteration # 22     ecut=    50.00 Ry     beta= 0.60
     Davidson diagonalization with overlap
     ethr =  1.84E-13,  avg # of iterations =  2.9

     total cpu time spent up to now is     4140.0 secs

     End of self-consistent calculation

     Number of k-points >= 100: set verbosity='high' to print the bands.

     the Fermi energy is    15.2316 ev

!    total energy              =    -585.80840676 Ry
     Harris-Foulkes estimate   =    -585.80840676 Ry
     estimated scf accuracy    <          3.6E-11 Ry

     The total energy is the sum of the following terms:

     one-electron contribution =    -155.23199918 Ry
     hartree contribution      =     102.82495075 Ry
     xc contribution           =     -80.49563743 Ry
     ewald contribution        =    -452.90298817 Ry
     smearing contrib. (-TS)   =      -0.00273274 Ry

     convergence has been achieved in  22 iterations

     Forces acting on atoms (cartesian axes, Ry/au):

     atom    1 type  2   force =     0.00350682   -0.00350682   -0.00350682
     atom    2 type  2   force =    -0.00350682    0.00350682    0.00350682
     atom    3 type  1   force =     0.00168237   -0.00168237   -0.00168237
     atom    4 type  2   force =    -0.00000000    0.00000000   -0.00000000
     atom    5 type  1   force =    -0.00168237    0.00168237    0.00168237

     Total force =     0.009527     Total SCF correction =     0.000007


     Computing stress (Cartesian axis) and pressure

          total   stress  (Ry/bohr**3)                   (kbar)     P=   -0.76
  -0.00000517   0.00000097   0.00000097         -0.76      0.14      0.14
   0.00000097  -0.00000517  -0.00000097          0.14     -0.76     -0.14
   0.00000097  -0.00000097  -0.00000517          0.14     -0.14     -0.76


     number of scf cycles    =   5
     number of bfgs steps    =   4

     enthalpy old            =    -585.8082264660 Ry
     enthalpy new            =    -585.8084067560 Ry

     CASE: enthalpy_new < enthalpy_old

     new trust radius        =       0.0107858476 bohr
     new conv_thr            =            1.0E-10 Ry

     new unit-cell volume =    588.84668 a.u.^3 (    87.25807 Ang^3 )
     density =      6.26881 g/cm^3

CELL_PARAMETERS (alat=  1.88972599)
  -1.636383662   1.636383662   4.903253724
  -1.636383662   4.903253724   1.636383662
  -4.903253724   1.636383662   1.636383662

ATOMIC_POSITIONS (angstrom)
Ti      -3.261251051   3.261251051   3.261251051
Ti      -4.914769997   4.914769997   4.914769997
Nb      -6.541635034   6.541635034   6.541635034
Ti      -8.176021048   8.176021048   8.176021048
Nb      -1.634386014   1.634386014   1.634386014


     NEW-OLD atomic charge density approx. for the potential
     extrapolated charge   61.81975, renormalised to   62.00000

     total cpu time spent up to now is     4152.7 secs

     Self-consistent Calculation

     iteration #  1     ecut=    50.00 Ry     beta= 0.60
     Davidson diagonalization with overlap
     ethr =  1.00E-06,  avg # of iterations =  5.1

     total cpu time spent up to now is     4194.3 secs

     total energy              =    -585.80214845 Ry
     Harris-Foulkes estimate   =    -586.13191837 Ry
     estimated scf accuracy    <       0.00653345 Ry

     iteration #  2     ecut=    50.00 Ry     beta= 0.60
     Davidson diagonalization with overlap
     ethr =  1.05E-05,  avg # of iterations =  5.3

     total cpu time spent up to now is     4234.4 secs

     total energy              =    -585.79537142 Ry
     Harris-Foulkes estimate   =    -585.82746532 Ry
     estimated scf accuracy    <       0.21754358 Ry

     iteration #  3     ecut=    50.00 Ry     beta= 0.60
     Davidson diagonalization with overlap
     ethr =  1.05E-05,  avg # of iterations =  5.6

     total cpu time spent up to now is     4270.1 secs

     total energy              =    -585.80845267 Ry
     Harris-Foulkes estimate   =    -585.80944917 Ry
     estimated scf accuracy    <       0.00349669 Ry

     iteration #  4     ecut=    50.00 Ry     beta= 0.60
     Davidson diagonalization with overlap
     ethr =  5.64E-06,  avg # of iterations =  3.7

     total cpu time spent up to now is     4294.0 secs

     total energy              =    -585.80853159 Ry
     Harris-Foulkes estimate   =    -585.80894747 Ry
     estimated scf accuracy    <       0.00362966 Ry

     iteration #  5     ecut=    50.00 Ry     beta= 0.60
     Davidson diagonalization with overlap
     ethr =  5.64E-06,  avg # of iterations =  1.0

     total cpu time spent up to now is     4313.8 secs

     total energy              =    -585.80843835 Ry
     Harris-Foulkes estimate   =    -585.80869634 Ry
     estimated scf accuracy    <       0.00152667 Ry

     iteration #  6     ecut=    50.00 Ry     beta= 0.60
     Davidson diagonalization with overlap
     ethr =  2.46E-06,  avg # of iterations =  3.9

     total cpu time spent up to now is     4337.4 secs

     total energy              =    -585.80849895 Ry
     Harris-Foulkes estimate   =    -585.80856239 Ry
     estimated scf accuracy    <       0.00043583 Ry

     iteration #  7     ecut=    50.00 Ry     beta= 0.60
     Davidson diagonalization with overlap
     ethr =  7.03E-07,  avg # of iterations =  2.9

     total cpu time spent up to now is     4360.6 secs

     total energy              =    -585.80852382 Ry
     Harris-Foulkes estimate   =    -585.80853630 Ry
     estimated scf accuracy    <       0.00009163 Ry

     iteration #  8     ecut=    50.00 Ry     beta= 0.60
     Davidson diagonalization with overlap
     ethr =  1.48E-07,  avg # of iterations =  4.0

     total cpu time spent up to now is     4386.8 secs

     total energy              =    -585.80853761 Ry
     Harris-Foulkes estimate   =    -585.80853902 Ry
     estimated scf accuracy    <       0.00001254 Ry

     iteration #  9     ecut=    50.00 Ry     beta= 0.60
     Davidson diagonalization with overlap
     ethr =  2.02E-08,  avg # of iterations =  3.6

     total cpu time spent up to now is     4411.1 secs

     total energy              =    -585.80853876 Ry
     Harris-Foulkes estimate   =    -585.80853947 Ry
     estimated scf accuracy    <       0.00000382 Ry

     iteration # 10     ecut=    50.00 Ry     beta= 0.60
     Davidson diagonalization with overlap
     ethr =  6.16E-09,  avg # of iterations =  3.0

[...]
     c_bands:  2 eigenvalues not converged
     c_bands:  1 eigenvalues not converged
     c_bands:  2 eigenvalues not converged
     c_bands:  1 eigenvalues not converged
     c_bands:  2 eigenvalues not converged
     c_bands:  1 eigenvalues not converged
     c_bands:  2 eigenvalues not converged
     c_bands:  2 eigenvalues not converged
     c_bands:  3 eigenvalues not converged
     c_bands:  1 eigenvalues not converged
     c_bands:  2 eigenvalues not converged
     c_bands:  1 eigenvalues not converged
     c_bands:  2 eigenvalues not converged
     c_bands:  1 eigenvalues not converged
     c_bands:  2 eigenvalues not converged
     c_bands:  1 eigenvalues not converged
     c_bands:  2 eigenvalues not converged
     c_bands:  1 eigenvalues not converged
     c_bands:  2 eigenvalues not converged
     c_bands:  2 eigenvalues not converged
     c_bands:  2 eigenvalues not converged
     c_bands:  1 eigenvalues not converged
     c_bands:  1 eigenvalues not converged
     c_bands:  3 eigenvalues not converged
     c_bands:  2 eigenvalues not converged
     c_bands:  1 eigenvalues not converged
     c_bands:  2 eigenvalues not converged
     c_bands:  2 eigenvalues not converged
     c_bands:  1 eigenvalues not converged
     c_bands:  1 eigenvalues not converged
     c_bands:  1 eigenvalues not converged
     c_bands:  3 eigenvalues not converged
     c_bands:  2 eigenvalues not converged
     c_bands:  2 eigenvalues not converged
     c_bands:  2 eigenvalues not converged
     c_bands:  2 eigenvalues not converged
     c_bands:  2 eigenvalues not converged
     c_bands:  1 eigenvalues not converged
     c_bands:  2 eigenvalues not converged
     c_bands:  2 eigenvalues not converged
     c_bands:  2 eigenvalues not converged
     c_bands:  2 eigenvalues not converged
     c_bands:  1 eigenvalues not converged
     c_bands:  1 eigenvalues not converged
     c_bands:  1 eigenvalues not converged
     c_bands:  2 eigenvalues not converged
     c_bands:  1 eigenvalues not converged
     ethr =  1.00E-06,  avg # of iterations = 17.9

     total cpu time spent up to now is     8997.1 secs

     total energy              =    -580.15769904 Ry
     Harris-Foulkes estimate   =    -587.57680086 Ry
     estimated scf accuracy    <       9.52103789 Ry

     iteration #  2     ecut=    50.00 Ry     beta= 0.60
     Davidson diagonalization with overlap
     ethr =  1.00E-02,  avg # of iterations =  5.0

     total cpu time spent up to now is     9025.3 secs

     total energy              =    -581.74737594 Ry
     Harris-Foulkes estimate   =    -597.23713262 Ry
     estimated scf accuracy    <      49.91057423 Ry

     iteration #  3     ecut=    50.00 Ry     beta= 0.60
     Davidson diagonalization with overlap
     ethr =  1.00E-02,  avg # of iterations =  4.9

     total cpu time spent up to now is     9049.8 secs

     total energy              =    -585.93397884 Ry
     Harris-Foulkes estimate   =    -586.16258929 Ry
     estimated scf accuracy    <       2.12554245 Ry

     iteration #  4     ecut=    50.00 Ry     beta= 0.60
     Davidson diagonalization with overlap
     ethr =  3.43E-03,  avg # of iterations =  2.1

     total cpu time spent up to now is     9066.1 secs

     total energy              =    -585.62873908 Ry
     Harris-Foulkes estimate   =    -585.98897323 Ry
     estimated scf accuracy    <       1.53983402 Ry

     iteration #  5     ecut=    50.00 Ry     beta= 0.60
     Davidson diagonalization with overlap
     ethr =  2.48E-03,  avg # of iterations =  5.0

     total cpu time spent up to now is     9087.4 secs

     total energy              =    -585.77650406 Ry
     Harris-Foulkes estimate   =    -585.82007225 Ry
     estimated scf accuracy    <       0.12152941 Ry

     iteration #  6     ecut=    50.00 Ry     beta= 0.60
     Davidson diagonalization with overlap
     ethr =  1.96E-04,  avg # of iterations =  6.4

     total cpu time spent up to now is     9114.7 secs

     total energy              =    -585.80094257 Ry
     Harris-Foulkes estimate   =    -585.84866253 Ry
     estimated scf accuracy    <       0.36863474 Ry

     iteration #  7     ecut=    50.00 Ry     beta= 0.60
     Davidson diagonalization with overlap
     ethr =  1.96E-04,  avg # of iterations =  4.0

     total cpu time spent up to now is     9133.8 secs

     total energy              =    -585.81174803 Ry
     Harris-Foulkes estimate   =    -585.81986535 Ry
     estimated scf accuracy    <       0.12903731 Ry

     iteration #  8     ecut=    50.00 Ry     beta= 0.60
     Davidson diagonalization with overlap
     ethr =  1.96E-04,  avg # of iterations =  1.1

     total cpu time spent up to now is     9149.2 secs

     total energy              =    -585.79047368 Ry
     Harris-Foulkes estimate   =    -585.81367944 Ry
     estimated scf accuracy    <       0.08799674 Ry

     iteration #  9     ecut=    50.00 Ry     beta= 0.60
     Davidson diagonalization with overlap
     ethr =  1.42E-04,  avg # of iterations =  5.2

     total cpu time spent up to now is     9171.7 secs

     total energy              =    -585.80774656 Ry
     Harris-Foulkes estimate   =    -585.81384895 Ry
     estimated scf accuracy    <       0.08717940 Ry

     iteration # 10     ecut=    50.00 Ry     beta= 0.60
     Davidson diagonalization with overlap
     ethr =  1.41E-04,  avg # of iterations =  1.0

     total cpu time spent up to now is     9187.1 secs

     total energy              =    -585.80861535 Ry
     Harris-Foulkes estimate   =    -585.80914675 Ry
     estimated scf accuracy    <       0.03149027 Ry

     iteration # 11     ecut=    50.00 Ry     beta= 0.60
     Davidson diagonalization with overlap
     ethr =  5.08E-05,  avg # of iterations =  1.0

     total cpu time spent up to now is     9202.5 secs

     total energy              =    -585.80409616 Ry
     Harris-Foulkes estimate   =    -585.80886600 Ry
     estimated scf accuracy    <       0.02572815 Ry

     iteration # 12     ecut=    50.00 Ry     beta= 0.60
     Davidson diagonalization with overlap
     ethr =  4.15E-05,  avg # of iterations =  4.7

     total cpu time spent up to now is     9223.0 secs

     total energy              =    -585.80785123 Ry
     Harris-Foulkes estimate   =    -585.80879683 Ry
     estimated scf accuracy    <       0.00809802 Ry

     iteration # 13     ecut=    50.00 Ry     beta= 0.60
     Davidson diagonalization with overlap
     ethr =  1.31E-05,  avg # of iterations =  2.1

     total cpu time spent up to now is     9239.4 secs

     total energy              =    -585.80771150 Ry
     Harris-Foulkes estimate   =    -585.80817359 Ry
     estimated scf accuracy    <       0.00179724 Ry

     iteration # 14     ecut=    50.00 Ry     beta= 0.60
     Davidson diagonalization with overlap
     ethr =  2.90E-06,  avg # of iterations =  6.2

     total cpu time spent up to now is     9264.7 secs

     total energy              =    -585.80803334 Ry
     Harris-Foulkes estimate   =    -585.80849869 Ry
     estimated scf accuracy    <       0.00346416 Ry

     iteration # 15     ecut=    50.00 Ry     beta= 0.60
     Davidson diagonalization with overlap
     ethr =  2.90E-06,  avg # of iterations =  1.9

     total cpu time spent up to now is     9280.8 secs

     total energy              =    -585.80817381 Ry
     Harris-Foulkes estimate   =    -585.80818688 Ry
     estimated scf accuracy    <       0.00029686 Ry

     iteration # 16     ecut=    50.00 Ry     beta= 0.60
     Davidson diagonalization with overlap
     ethr =  4.79E-07,  avg # of iterations =  4.9

     total cpu time spent up to now is     9303.2 secs

     total energy              =    -585.80825258 Ry
     Harris-Foulkes estimate   =    -585.80825281 Ry
     estimated scf accuracy    <       0.00001279 Ry

     iteration # 17     ecut=    50.00 Ry     beta= 0.60
     Davidson diagonalization with overlap
     ethr =  2.06E-08,  avg # of iterations =  3.5

     total cpu time spent up to now is     9321.5 secs

     total energy              =    -585.80825102 Ry
     Harris-Foulkes estimate   =    -585.80825336 Ry
     estimated scf accuracy    <       0.00001192 Ry

     iteration # 18     ecut=    50.00 Ry     beta= 0.60
     Davidson diagonalization with overlap
     ethr =  1.92E-08,  avg # of iterations =  3.5

     total cpu time spent up to now is     9339.3 secs

     total energy              =    -585.80825216 Ry
     Harris-Foulkes estimate   =    -585.80825245 Ry
     estimated scf accuracy    <       0.00000062 Ry

     iteration # 19     ecut=    50.00 Ry     beta= 0.60
     Davidson diagonalization with overlap
     ethr =  1.00E-09,  avg # of iterations =  5.1

     total cpu time spent up to now is     9363.0 secs

     total energy              =    -585.80825272 Ry
     Harris-Foulkes estimate   =    -585.80825276 Ry
     estimated scf accuracy    <       0.00000283 Ry

     iteration # 20     ecut=    50.00 Ry     beta= 0.60
     Davidson diagonalization with overlap
     ethr =  1.00E-09,  avg # of iterations =  1.0

     total cpu time spent up to now is     9378.3 secs

     total energy              =    -585.80825256 Ry
     Harris-Foulkes estimate   =    -585.80825273 Ry
     estimated scf accuracy    <       0.00000255 Ry

     iteration # 21     ecut=    50.00 Ry     beta= 0.60
     Davidson diagonalization with overlap
     ethr =  1.00E-09,  avg # of iterations =  1.8

     total cpu time spent up to now is     9394.3 secs

     total energy              =    -585.80825255 Ry
     Harris-Foulkes estimate   =    -585.80825259 Ry
     estimated scf accuracy    <       0.00000103 Ry

     iteration # 22     ecut=    50.00 Ry     beta= 0.60
     Davidson diagonalization with overlap
     ethr =  1.00E-09,  avg # of iterations =  1.0

     total cpu time spent up to now is     9409.6 secs

     total energy              =    -585.80825254 Ry
     Harris-Foulkes estimate   =    -585.80825256 Ry
     estimated scf accuracy    <       0.00000072 Ry

     iteration # 23     ecut=    50.00 Ry     beta= 0.60
     Davidson diagonalization with overlap
     ethr =  1.00E-09,  avg # of iterations =  1.0

     total cpu time spent up to now is     9425.0 secs

     total energy              =    -585.80825251 Ry
     Harris-Foulkes estimate   =    -585.80825255 Ry
     estimated scf accuracy    <       0.00000047 Ry

     iteration # 24     ecut=    50.00 Ry     beta= 0.60
     Davidson diagonalization with overlap
     ethr =  7.55E-10,  avg # of iterations =  3.6

     total cpu time spent up to now is     9443.7 secs

     total energy              =    -585.80825254 Ry
     Harris-Foulkes estimate   =    -585.80825255 Ry
     estimated scf accuracy    <          4.2E-09 Ry

     iteration # 25     ecut=    50.00 Ry     beta= 0.60
     Davidson diagonalization with overlap
     ethr =  6.78E-12,  avg # of iterations =  5.8

     total cpu time spent up to now is     9471.5 secs

     total energy              =    -585.80825256 Ry
     Harris-Foulkes estimate   =    -585.80825256 Ry
     estimated scf accuracy    <       0.00000013 Ry

     iteration # 26     ecut=    50.00 Ry     beta= 0.60
     Davidson diagonalization with overlap
     ethr =  6.78E-12,  avg # of iterations =  1.0

     total cpu time spent up to now is     9486.8 secs

     total energy              =    -585.80825256 Ry
     Harris-Foulkes estimate   =    -585.80825256 Ry
     estimated scf accuracy    <       0.00000012 Ry

     iteration # 27     ecut=    50.00 Ry     beta= 0.60
     Davidson diagonalization with overlap
     ethr =  6.78E-12,  avg # of iterations =  1.0

     total cpu time spent up to now is     9502.2 secs

     total energy              =    -585.80825255 Ry
     Harris-Foulkes estimate   =    -585.80825256 Ry
     estimated scf accuracy    <       0.00000011 Ry

     iteration # 28     ecut=    50.00 Ry     beta= 0.60
     Davidson diagonalization with overlap
     ethr =  6.78E-12,  avg # of iterations =  4.7

     total cpu time spent up to now is     9525.2 secs

     total energy              =    -585.80825255 Ry
     Harris-Foulkes estimate   =    -585.80825255 Ry
     estimated scf accuracy    <       0.00000002 Ry

     iteration # 29     ecut=    50.00 Ry     beta= 0.60
     Davidson diagonalization with overlap
     ethr =  6.78E-12,  avg # of iterations =  1.0

     total cpu time spent up to now is     9540.6 secs

     total energy              =    -585.80825255 Ry
     Harris-Foulkes estimate   =    -585.80825255 Ry
     estimated scf accuracy    <          7.2E-09 Ry

     iteration # 30     ecut=    50.00 Ry     beta= 0.60
     Davidson diagonalization with overlap
     ethr =  6.78E-12,  avg # of iterations =  3.4

     total cpu time spent up to now is     9559.3 secs

     total energy              =    -585.80825255 Ry
     Harris-Foulkes estimate   =    -585.80825255 Ry
     estimated scf accuracy    <          1.2E-10 Ry

     iteration # 31     ecut=    50.00 Ry     beta= 0.60
     Davidson diagonalization with overlap
     ethr =  2.00E-13,  avg # of iterations =  5.1

     total cpu time spent up to now is     9584.3 secs

     total energy              =    -585.80825255 Ry
     Harris-Foulkes estimate   =    -585.80825255 Ry
     estimated scf accuracy    <          9.1E-10 Ry

     iteration # 32     ecut=    50.00 Ry     beta= 0.60
     Davidson diagonalization with overlap
     ethr =  2.00E-13,  avg # of iterations =  1.0

     total cpu time spent up to now is     9599.7 secs

     total energy              =    -585.80825255 Ry
     Harris-Foulkes estimate   =    -585.80825255 Ry
     estimated scf accuracy    <          1.3E-09 Ry

     iteration # 33     ecut=    50.00 Ry     beta= 0.60
     Davidson diagonalization with overlap
     ethr =  2.00E-13,  avg # of iterations =  1.0

     total cpu time spent up to now is     9615.0 secs

     total energy              =    -585.80825255 Ry
     Harris-Foulkes estimate   =    -585.80825255 Ry
     estimated scf accuracy    <          7.1E-10 Ry

     iteration # 34     ecut=    50.00 Ry     beta= 0.60
     Davidson diagonalization with overlap
     ethr =  2.00E-13,  avg # of iterations =  3.6

     total cpu time spent up to now is     9634.0 secs

     total energy              =    -585.80825255 Ry
     Harris-Foulkes estimate   =    -585.80825255 Ry
     estimated scf accuracy    <          1.4E-10 Ry

     iteration # 35     ecut=    50.00 Ry     beta= 0.60
     Davidson diagonalization with overlap
     ethr =  2.00E-13,  avg # of iterations =  1.0

     total cpu time spent up to now is     9649.4 secs

     total energy              =    -585.80825255 Ry
     Harris-Foulkes estimate   =    -585.80825255 Ry
     estimated scf accuracy    <          8.4E-11 Ry

     iteration # 36     ecut=    50.00 Ry     beta= 0.60
     Davidson diagonalization with overlap
     ethr =  1.36E-13,  avg # of iterations =  2.6

     total cpu time spent up to now is     9666.3 secs

     total energy              =    -585.80825255 Ry
     Harris-Foulkes estimate   =    -585.80825255 Ry
     estimated scf accuracy    <          5.3E-12 Ry

     iteration # 37     ecut=    50.00 Ry     beta= 0.60
     Davidson diagonalization with overlap
     ethr =  1.00E-13,  avg # of iterations =  1.1

     total cpu time spent up to now is     9681.7 secs

     total energy              =    -585.80825255 Ry
     Harris-Foulkes estimate   =    -585.80825255 Ry
     estimated scf accuracy    <          4.8E-12 Ry

     iteration # 38     ecut=    50.00 Ry     beta= 0.60
     Davidson diagonalization with overlap
     ethr =  1.00E-13,  avg # of iterations =  1.0

     total cpu time spent up to now is     9697.0 secs

     End of self-consistent calculation

     Number of k-points >= 100: set verbosity='high' to print the bands.

     the Fermi energy is    15.2467 ev

!    total energy              =    -585.80825255 Ry
     Harris-Foulkes estimate   =    -585.80825255 Ry
     estimated scf accuracy    <          1.2E-12 Ry

     The total energy is the sum of the following terms:

     one-electron contribution =    -155.01255404 Ry
     hartree contribution      =     102.76963088 Ry
     xc contribution           =     -80.50104928 Ry
     ewald contribution        =    -453.06186854 Ry
     smearing contrib. (-TS)   =      -0.00241157 Ry

     convergence has been achieved in  38 iterations

     Forces acting on atoms (cartesian axes, Ry/au):

     atom    1 type  2   force =    -0.00000714    0.00000714    0.00000714
     atom    2 type  2   force =     0.00000714   -0.00000714   -0.00000714
     atom    3 type  1   force =     0.00002148   -0.00002148   -0.00002148
     atom    4 type  2   force =     0.00000000    0.00000000    0.00000000
     atom    5 type  1   force =    -0.00002148    0.00002148    0.00002148

     Total force =     0.000055     Total SCF correction =     0.000001


     Computing stress (Cartesian axis) and pressure

          total   stress  (Ry/bohr**3)                   (kbar)     P=   -0.62
  -0.00000423  -0.00000011  -0.00000011         -0.62     -0.02     -0.02
  -0.00000011  -0.00000423   0.00000011         -0.02     -0.62      0.02
  -0.00000011   0.00000011  -0.00000423         -0.02      0.02     -0.62

 
     init_run     :     21.59s CPU     22.72s WALL (       2 calls)
     electrons    :   9308.34s CPU   9472.89s WALL (      17 calls)
     update_pot   :     25.88s CPU     25.97s WALL (      15 calls)
     forces       :     44.61s CPU     46.29s WALL (      17 calls)
     stress       :    124.21s CPU    129.26s WALL (      17 calls)

     Called by init_run:
     wfcinit      :     19.26s CPU     20.14s WALL (       2 calls)
     potinit      :      0.70s CPU      0.72s WALL (       2 calls)
     hinit0       :      1.27s CPU      1.30s WALL (       2 calls)

     Called by electrons:
     c_bands      :   7732.26s CPU   7815.80s WALL (     376 calls)
     sum_band     :   1454.81s CPU   1500.36s WALL (     376 calls)
     v_of_rho     :     24.70s CPU     24.97s WALL (     387 calls)
     newd         :     97.45s CPU    133.52s WALL (     387 calls)
     mix_rho      :      2.76s CPU      2.78s WALL (     376 calls)

     Called by c_bands:
     init_us_2    :     99.79s CPU    101.62s WALL (  148932 calls)
     cegterg      :   7143.49s CPU   7218.22s WALL (   71064 calls)

     Called by sum_band:
     sum_band:bec :      2.06s CPU      2.20s WALL (   71064 calls)
     addusdens    :    108.47s CPU    139.90s WALL (     376 calls)

     Called by *egterg:
     h_psi        :   5523.14s CPU   5591.87s WALL (  303102 calls)
     s_psi        :    177.91s CPU    178.26s WALL (  303102 calls)
     g_psi        :     35.86s CPU     35.64s WALL (  231660 calls)
     cdiaghg      :    779.23s CPU    781.62s WALL (  298755 calls)

     Called by h_psi:
     h_psi:pot    :   5511.62s CPU   5579.67s WALL (  303102 calls)
     h_psi:calbec :    189.69s CPU    189.85s WALL (  303102 calls)
     vloc_psi     :   5142.47s CPU   5209.36s WALL (  303102 calls)
     add_vuspsi   :    178.28s CPU    178.85s WALL (  303102 calls)

     General routines
     calbec       :    274.08s CPU    274.06s WALL (  390231 calls)
     fft          :     16.20s CPU     16.58s WALL (    5460 calls)
     ffts         :      0.53s CPU      0.53s WALL (     763 calls)
     fftw         :   5680.05s CPU   5741.60s WALL (15978078 calls)
     interpolate  :      1.38s CPU      1.38s WALL (     387 calls)
 
     Parallel routines
     fft_scatt_xy :   1076.95s CPU   1068.09s WALL (15984301 calls)
     fft_scatt_yz :   1083.51s CPU   1104.14s WALL (15984301 calls)
 
     PWSCF        :     2h38m CPU       38h 2m WALL

      41h
 
   This run was terminated on:  19:51:37   3Feb2020            

=------------------------------------------------------------------------------=
   JOB DONE.
=------------------------------------------------------------------------------=
