
     Program PWSCF v.6.3MaX starts on  3Feb2020 at 10:25:41 

     This program is part of the open-source Quantum ESPRESSO suite
     for quantum simulation of materials; please cite
         "P. Giannozzi et al., J. Phys.:Condens. Matter 21 395502 (2009);
         "P. Giannozzi et al., J. Phys.:Condens. Matter 29 465901 (2017);
          URL http://www.quantum-espresso.org", 
     in publications or presentations arising from this work. More details at
     http://www.quantum-espresso.org/quote

     Parallel version (MPI), running on     4 processors

     MPI processes distributed on     1 nodes
     R & G space division:  proc/nbgrp/npool/nimage =       4
     Waiting for input...
     Reading input from standard input

     Current dimensions of program PWSCF are:
     Max number of different atomic species (ntypx) = 10
     Max number of k-points (npk) =  40000
     Max angular momentum in pseudopotentials (lmaxx) =  3
     Message from routine iosys:
     minimal I/O required, wf_collect reset to FALSE

     Subspace diagonalization in iterative solution of the eigenvalue problem:
     a serial algorithm will be used

 
     Parallelization info
     --------------------
     sticks:   dense  smooth     PW     G-vecs:    dense   smooth      PW
     Min         538     213     65                27719     7004    1154
     Max         539     214     66                27721     7007    1156
     Sum        2155     855    261               110881    28023    4619
 


     bravais-lattice index     =            0
     lattice parameter (alat)  =       1.8897  a.u.
     unit-cell volume          =     586.6735 (a.u.)^3
     number of atoms/cell      =            4
     number of atomic types    =            2
     number of electrons       =        50.00
     number of Kohn-Sham states=           30
     kinetic-energy cutoff     =      50.0000  Ry
     charge density cutoff     =     500.0000  Ry
     convergence threshold     =      1.0E-10
     mixing beta               =       0.6000
     number of iterations used =            8  plain     mixing
     Exchange-correlation      = SLA PW PBE PBE ( 1  4  3  4 0 0)
     nstep                     =           50


     celldm(1)=   1.889726  celldm(2)=   0.000000  celldm(3)=   0.000000
     celldm(4)=   0.000000  celldm(5)=   0.000000  celldm(6)=   0.000000

     crystal axes: (cart. coord. in units of alat)
               a(1) = (   1.758031   1.758031  -1.758031 )  
               a(2) = (  -3.516063   3.516063   0.000000 )  
               a(3) = (   1.758031   1.758031   5.274095 )  

     reciprocal axes: (cart. coord. in units 2 pi/alat)
               b(1) = (  0.213307  0.213307 -0.142205 )  
               b(2) = ( -0.142205  0.142205  0.000000 )  
               b(3) = (  0.071102  0.071102  0.142205 )  


     PseudoPot. # 1 for Nb read from file:
     ./Nb.pbe-nsp-van.UPF
     MD5 check sum: 0a22fc7fb0ba19a08ca5db297a5d2854
     Pseudo is Ultrasoft + core correction, Zval = 13.0
     Generated by new atomic code, or converted to UPF format
     Using radial grid of  887 points,  6 beta functions with: 
                l(1) =   0
                l(2) =   0
                l(3) =   1
                l(4) =   1
                l(5) =   2
                l(6) =   2
     Q(r) pseudized with  6 coefficients,  rinner =    1.000   1.000   1.000
                                                       1.000   1.000

     PseudoPot. # 2 for Ti read from file:
     ./Ti.pbe-sp-van_ak.UPF
     MD5 check sum: f98fea3e8887528921fefa5636a534ca
     Pseudo is Ultrasoft, Zval = 12.0
     Generated by new atomic code, or converted to UPF format
     Using radial grid of  851 points,  6 beta functions with: 
                l(1) =   0
                l(2) =   0
                l(3) =   1
                l(4) =   1
                l(5) =   2
                l(6) =   2
     Q(r) pseudized with  8 coefficients,  rinner =    1.000   1.000   1.000
                                                       1.000   1.000

     atomic species   valence    mass     pseudopotential
        Nb            13.00    92.90638     Nb( 1.00)
        Ti            12.00    47.86700     Ti( 1.00)

      2 Sym. Ops. (no inversion) found
          (note:  2 additional sym.ops. were found but ignored
           their fractional translations are incommensurate with FFT grid)


   Cartesian axes

     site n.     atom                  positions (alat units)
         1           Ti  tau(   1) = (  -1.7580316   5.2740949   1.7580316  )
         2           Ti  tau(   2) = (   0.0000000   3.5160633   3.5160633  )
         3           Nb  tau(   3) = (   0.0000000   7.0321265   3.5160633  )
         4           Nb  tau(   4) = (   0.0000000   3.5160633   0.0000000  )

     number of k points=   576  Marzari-Vanderbilt smearing, width (Ry)=  0.0200

     Number of k-points >= 100: set verbosity='high' to print them.

     Dense  grid:   110881 G-vectors     FFT dimensions: (  45,  72,  80)

     Smooth grid:    28023 G-vectors     FFT dimensions: (  25,  45,  50)

     Estimated max dynamical RAM per process >     335.92 MB

     Estimated total dynamical RAM >       1.31 GB

     Initial potential from superposition of free atoms

     starting charge   47.99445, renormalised to   50.00000
     Starting wfcs are   46 randomized atomic wfcs

     total cpu time spent up to now is       16.6 secs

     Self-consistent Calculation

     iteration #  1     ecut=    50.00 Ry     beta= 0.60
     Davidson diagonalization with overlap
     ethr =  1.00E-02,  avg # of iterations =  3.3

     total cpu time spent up to now is       52.2 secs

     total energy              =    -454.98156579 Ry
     Harris-Foulkes estimate   =    -471.41476968 Ry
     estimated scf accuracy    <      20.60637619 Ry

     iteration #  2     ecut=    50.00 Ry     beta= 0.60
     Davidson diagonalization with overlap
     ethr =  1.00E-02,  avg # of iterations =  6.4

     total cpu time spent up to now is      113.0 secs

     total energy              =    -458.87986010 Ry
     Harris-Foulkes estimate   =    -492.90050087 Ry
     estimated scf accuracy    <     107.56969774 Ry

     iteration #  3     ecut=    50.00 Ry     beta= 0.60
     Davidson diagonalization with overlap
     ethr =  1.00E-02,  avg # of iterations =  3.6

     total cpu time spent up to now is      156.4 secs

     total energy              =    -469.73616886 Ry
     Harris-Foulkes estimate   =    -470.81846967 Ry
     estimated scf accuracy    <      11.48709353 Ry

     iteration #  4     ecut=    50.00 Ry     beta= 0.60
     Davidson diagonalization with overlap
     ethr =  1.00E-02,  avg # of iterations =  1.0

     total cpu time spent up to now is      181.6 secs

     total energy              =    -469.62210170 Ry
     Harris-Foulkes estimate   =    -469.83855465 Ry
     estimated scf accuracy    <       7.18117898 Ry

     iteration #  5     ecut=    50.00 Ry     beta= 0.60
     Davidson diagonalization with overlap
     ethr =  1.00E-02,  avg # of iterations =  1.0

     total cpu time spent up to now is      207.0 secs

     total energy              =    -471.15871092 Ry
     Harris-Foulkes estimate   =    -469.64909792 Ry
     estimated scf accuracy    <       6.22798153 Ry

     iteration #  6     ecut=    50.00 Ry     beta= 0.60
     Davidson diagonalization with overlap
     ethr =  1.00E-02,  avg # of iterations =  1.0

     total cpu time spent up to now is      249.8 secs

     total energy              =    -467.45431534 Ry
     Harris-Foulkes estimate   =    -471.26292203 Ry
     estimated scf accuracy    <      10.24063729 Ry

     iteration #  7     ecut=    50.00 Ry     beta= 0.60
     Davidson diagonalization with overlap
     ethr =  1.00E-02,  avg # of iterations =  5.6

     total cpu time spent up to now is      298.3 secs

     total energy              =    -469.18181754 Ry
     Harris-Foulkes estimate   =    -469.70295701 Ry
     estimated scf accuracy    <      11.35475647 Ry

     iteration #  8     ecut=    50.00 Ry     beta= 0.60
     Davidson diagonalization with overlap
     ethr =  1.00E-02,  avg # of iterations =  1.0

     total cpu time spent up to now is      324.3 secs

     total energy              =    -469.24187573 Ry
     Harris-Foulkes estimate   =    -469.25890533 Ry
     estimated scf accuracy    <       6.05732456 Ry

     iteration #  9     ecut=    50.00 Ry     beta= 0.60
     Davidson diagonalization with overlap
     ethr =  1.00E-02,  avg # of iterations =  1.0

     total cpu time spent up to now is      350.2 secs

     total energy              =    -469.21846650 Ry
     Harris-Foulkes estimate   =    -469.25383018 Ry
     estimated scf accuracy    <       5.88067469 Ry

     iteration # 10     ecut=    50.00 Ry     beta= 0.60
     Davidson diagonalization with overlap
     ethr =  1.00E-02,  avg # of iterations =  1.0

     total cpu time spent up to now is      376.1 secs

     total energy              =    -468.66515045 Ry
     Harris-Foulkes estimate   =    -469.22778361 Ry
     estimated scf accuracy    <       5.09616268 Ry

     iteration # 11     ecut=    50.00 Ry     beta= 0.60
     Davidson diagonalization with overlap
     ethr =  1.00E-02,  avg # of iterations =  2.5

     total cpu time spent up to now is      405.9 secs

     total energy              =    -469.01519730 Ry
     Harris-Foulkes estimate   =    -469.03645707 Ry
     estimated scf accuracy    <       0.05575976 Ry

     iteration # 12     ecut=    50.00 Ry     beta= 0.60
     Davidson diagonalization with overlap
     ethr =  1.12E-04,  avg # of iterations =  6.8

     total cpu time spent up to now is      459.8 secs

     total energy              =    -469.04919806 Ry
     Harris-Foulkes estimate   =    -469.08288840 Ry
     estimated scf accuracy    <       0.09812383 Ry

     iteration # 13     ecut=    50.00 Ry     beta= 0.60
     Davidson diagonalization with overlap
     ethr =  1.12E-04,  avg # of iterations =  5.8

     total cpu time spent up to now is      506.5 secs

     total energy              =    -469.05982908 Ry
     Harris-Foulkes estimate   =    -469.09827333 Ry
     estimated scf accuracy    <       0.39692696 Ry

     iteration # 14     ecut=    50.00 Ry     beta= 0.60
     Davidson diagonalization with overlap
     ethr =  1.12E-04,  avg # of iterations =  4.6

     total cpu time spent up to now is      541.6 secs

     total energy              =    -469.07243413 Ry
     Harris-Foulkes estimate   =    -469.07361738 Ry
     estimated scf accuracy    <       0.04381632 Ry

     iteration # 15     ecut=    50.00 Ry     beta= 0.60
     Davidson diagonalization with overlap
     ethr =  8.76E-05,  avg # of iterations =  1.6

     total cpu time spent up to now is      568.0 secs

     total energy              =    -469.07083278 Ry
     Harris-Foulkes estimate   =    -469.07310167 Ry
     estimated scf accuracy    <       0.04084041 Ry

     iteration # 16     ecut=    50.00 Ry     beta= 0.60
     Davidson diagonalization with overlap
     ethr =  8.17E-05,  avg # of iterations =  2.4

     total cpu time spent up to now is      598.9 secs

     total energy              =    -469.07140625 Ry
     Harris-Foulkes estimate   =    -469.07360080 Ry
     estimated scf accuracy    <       0.01979354 Ry

     iteration # 17     ecut=    50.00 Ry     beta= 0.60
     Davidson diagonalization with overlap
     c_bands:  1 eigenvalues not converged
     ethr =  3.96E-05,  avg # of iterations =  3.3

     total cpu time spent up to now is      630.2 secs

     total energy              =    -469.07086602 Ry
     Harris-Foulkes estimate   =    -469.07224617 Ry
     estimated scf accuracy    <       0.00537796 Ry

     iteration # 18     ecut=    50.00 Ry     beta= 0.60
     Davidson diagonalization with overlap
     ethr =  1.08E-05,  avg # of iterations =  6.4

     total cpu time spent up to now is      674.7 secs

     total energy              =    -469.07174065 Ry
     Harris-Foulkes estimate   =    -469.07176072 Ry
     estimated scf accuracy    <       0.00014909 Ry

     iteration # 19     ecut=    50.00 Ry     beta= 0.60
     Davidson diagonalization with overlap
     ethr =  2.98E-07,  avg # of iterations =  5.9

     total cpu time spent up to now is      724.9 secs

     total energy              =    -469.07173885 Ry
     Harris-Foulkes estimate   =    -469.07185273 Ry
     estimated scf accuracy    <       0.00109724 Ry

     iteration # 20     ecut=    50.00 Ry     beta= 0.60
     Davidson diagonalization with overlap
     ethr =  2.98E-07,  avg # of iterations =  4.2

     total cpu time spent up to now is      761.8 secs

     total energy              =    -469.07176034 Ry
     Harris-Foulkes estimate   =    -469.07178633 Ry
     estimated scf accuracy    <       0.00032497 Ry

     iteration # 21     ecut=    50.00 Ry     beta= 0.60
     Davidson diagonalization with overlap
     ethr =  2.98E-07,  avg # of iterations =  1.0

     total cpu time spent up to now is      787.7 secs

     total energy              =    -469.07176230 Ry
     Harris-Foulkes estimate   =    -469.07176746 Ry
     estimated scf accuracy    <       0.00009964 Ry

     iteration # 22     ecut=    50.00 Ry     beta= 0.60
     Davidson diagonalization with overlap
     ethr =  1.99E-07,  avg # of iterations =  1.3

     total cpu time spent up to now is      813.8 secs

     total energy              =    -469.07176029 Ry
     Harris-Foulkes estimate   =    -469.07176489 Ry
     estimated scf accuracy    <       0.00004331 Ry

     iteration # 23     ecut=    50.00 Ry     beta= 0.60
     Davidson diagonalization with overlap
     ethr =  8.66E-08,  avg # of iterations =  4.0

     total cpu time spent up to now is      848.8 secs

     total energy              =    -469.07176520 Ry
     Harris-Foulkes estimate   =    -469.07176601 Ry
     estimated scf accuracy    <       0.00000463 Ry

     iteration # 24     ecut=    50.00 Ry     beta= 0.60
     Davidson diagonalization with overlap
     ethr =  9.27E-09,  avg # of iterations =  3.7

     total cpu time spent up to now is      882.2 secs

     total energy              =    -469.07176577 Ry
     Harris-Foulkes estimate   =    -469.07176587 Ry
     estimated scf accuracy    <       0.00000061 Ry

     iteration # 25     ecut=    50.00 Ry     beta= 0.60
     Davidson diagonalization with overlap
     ethr =  1.22E-09,  avg # of iterations =  4.0

     total cpu time spent up to now is      919.5 secs

     total energy              =    -469.07176589 Ry
     Harris-Foulkes estimate   =    -469.07176592 Ry
     estimated scf accuracy    <       0.00000026 Ry

     iteration # 26     ecut=    50.00 Ry     beta= 0.60
     Davidson diagonalization with overlap
     ethr =  5.11E-10,  avg # of iterations =  1.1

     total cpu time spent up to now is      945.5 secs

     total energy              =    -469.07176590 Ry
     Harris-Foulkes estimate   =    -469.07176590 Ry
     estimated scf accuracy    <       0.00000003 Ry

     iteration # 27     ecut=    50.00 Ry     beta= 0.60
     Davidson diagonalization with overlap
     ethr =  5.32E-11,  avg # of iterations =  4.1

     total cpu time spent up to now is      984.1 secs

     total energy              =    -469.07176591 Ry
     Harris-Foulkes estimate   =    -469.07176591 Ry
     estimated scf accuracy    <          7.4E-09 Ry

     iteration # 28     ecut=    50.00 Ry     beta= 0.60
     Davidson diagonalization with overlap
     ethr =  1.48E-11,  avg # of iterations =  1.4

     total cpu time spent up to now is     1010.5 secs

     total energy              =    -469.07176591 Ry
     Harris-Foulkes estimate   =    -469.07176591 Ry
     estimated scf accuracy    <          1.1E-09 Ry

     iteration # 29     ecut=    50.00 Ry     beta= 0.60
     Davidson diagonalization with overlap
     ethr =  2.14E-12,  avg # of iterations =  4.1

     total cpu time spent up to now is     1049.7 secs

     total energy              =    -469.07176591 Ry
     Harris-Foulkes estimate   =    -469.07176591 Ry
     estimated scf accuracy    <          1.7E-09 Ry

     iteration # 30     ecut=    50.00 Ry     beta= 0.60
     Davidson diagonalization with overlap
     ethr =  2.14E-12,  avg # of iterations =  2.4

     total cpu time spent up to now is     1078.3 secs

     End of self-consistent calculation

     Number of k-points >= 100: set verbosity='high' to print the bands.

     the Fermi energy is    12.1722 ev

!    total energy              =    -469.07176591 Ry
     Harris-Foulkes estimate   =    -469.07176591 Ry
     estimated scf accuracy    <          5.9E-11 Ry

     The total energy is the sum of the following terms:

     one-electron contribution =    -150.85824882 Ry
     hartree contribution      =      89.56384621 Ry
     xc contribution           =     -65.24396000 Ry
     ewald contribution        =    -342.53242269 Ry
     smearing contrib. (-TS)   =      -0.00098060 Ry

     convergence has been achieved in  30 iterations

     Forces acting on atoms (cartesian axes, Ry/au):

     atom    1 type  2   force =    -0.00037495   -0.00037495   -0.00944023
     atom    2 type  2   force =     0.00036960    0.00036960    0.00944533
     atom    3 type  1   force =    -0.00343102   -0.00343102    0.01286535
     atom    4 type  1   force =     0.00343637    0.00343637   -0.01287044

     Total force =     0.023605     Total SCF correction =     0.000014


     Computing stress (Cartesian axis) and pressure

          total   stress  (Ry/bohr**3)                   (kbar)     P= -199.10
  -0.00135113   0.00001455   0.00002616       -198.76      2.14      3.85
   0.00001455  -0.00135113   0.00002616          2.14   -198.76      3.85
   0.00002616   0.00002616  -0.00135818          3.85      3.85   -199.79


     BFGS Geometry Optimization

     number of scf cycles    =   1
     number of bfgs steps    =   0

     enthalpy new            =    -469.0717659059 Ry

     new trust radius        =       0.1645454830 bohr
     new conv_thr            =            1.0E-10 Ry

     new unit-cell volume =    529.11163 a.u.^3 (    78.40625 Ang^3 )
     density =      5.96278 g/cm^3

CELL_PARAMETERS (alat=  1.88972599)
   1.698137873   1.698137873  -1.696038671
  -3.396018227   3.396018227   0.000000000
   1.702737561   1.702737561   5.097315389

ATOMIC_POSITIONS (angstrom)
Ti      -1.695775560   5.096260894   1.695812165
Ti       0.003770843   3.399789070   3.403805669
Nb       0.003106712   6.795143166   3.407851228
Nb       0.003031910   3.399050137  -0.004277266


     NEW-OLD atomic charge density approx. for the potential
     extrapolated charge   44.77870, renormalised to   50.00000

     total cpu time spent up to now is     1093.8 secs

     Self-consistent Calculation

     iteration #  1     ecut=    50.00 Ry     beta= 0.60
     Davidson diagonalization with overlap
     c_bands:  1 eigenvalues not converged
     c_bands:  1 eigenvalues not converged
     c_bands:  1 eigenvalues not converged
     c_bands:  1 eigenvalues not converged
     c_bands:  1 eigenvalues not converged
     c_bands:  1 eigenvalues not converged
     c_bands:  1 eigenvalues not converged
     c_bands:  1 eigenvalues not converged
     c_bands:  1 eigenvalues not converged
     c_bands:  1 eigenvalues not converged
     c_bands:  1 eigenvalues not converged
     c_bands:  1 eigenvalues not converged
     c_bands:  1 eigenvalues not converged
     c_bands:  1 eigenvalues not converged
     c_bands:  1 eigenvalues not converged
     ethr =  1.00E-06,  avg # of iterations = 15.8

     total cpu time spent up to now is     1209.8 secs

     total energy              =    -443.96935377 Ry
     Harris-Foulkes estimate   =    -480.31476488 Ry
     estimated scf accuracy    <      28.18939127 Ry

     iteration #  2     ecut=    50.00 Ry     beta= 0.60
     Davidson diagonalization with overlap
     ethr =  1.00E-02,  avg # of iterations =  5.6

     total cpu time spent up to now is     1266.8 secs

     total energy              =    -450.68783465 Ry
     Harris-Foulkes estimate   =    -507.72610197 Ry
     estimated scf accuracy    <     204.41668959 Ry

     iteration #  3     ecut=    50.00 Ry     beta= 0.60
     Davidson diagonalization with overlap
     ethr =  1.00E-02,  avg # of iterations =  4.1

     total cpu time spent up to now is     1314.7 secs

     total energy              =    -470.87356092 Ry
     Harris-Foulkes estimate   =    -473.24702240 Ry
     estimated scf accuracy    <      12.33966088 Ry

     iteration #  4     ecut=    50.00 Ry     beta= 0.60
     Davidson diagonalization with overlap
     ethr =  1.00E-02,  avg # of iterations =  1.0

     total cpu time spent up to now is     1341.0 secs

     total energy              =    -468.80176678 Ry
     Harris-Foulkes estimate   =    -471.03322362 Ry
     estimated scf accuracy    <       8.83745856 Ry

     iteration #  5     ecut=    50.00 Ry     beta= 0.60
     Davidson diagonalization with overlap
     ethr =  1.00E-02,  avg # of iterations =  2.9

     total cpu time spent up to now is     1372.1 secs

     total energy              =    -469.50162156 Ry
     Harris-Foulkes estimate   =    -469.33077197 Ry
     estimated scf accuracy    <       1.34171624 Ry

     iteration #  6     ecut=    50.00 Ry     beta= 0.60
     Davidson diagonalization with overlap
     ethr =  2.68E-03,  avg # of iterations =  2.0

     total cpu time spent up to now is     1400.1 secs

     total energy              =    -469.48477712 Ry
     Harris-Foulkes estimate   =    -469.57439521 Ry
     estimated scf accuracy    <       2.36723091 Ry

     iteration #  7     ecut=    50.00 Ry     beta= 0.60
     Davidson diagonalization with overlap
     ethr =  2.68E-03,  avg # of iterations =  1.0

     total cpu time spent up to now is     1426.1 secs

     total energy              =    -469.52226591 Ry
     Harris-Foulkes estimate   =    -469.49511411 Ry
     estimated scf accuracy    <       2.22283268 Ry

     iteration #  8     ecut=    50.00 Ry     beta= 0.60
     Davidson diagonalization with overlap
     ethr =  2.68E-03,  avg # of iterations =  1.0

     total cpu time spent up to now is     1452.0 secs

     total energy              =    -469.52025208 Ry
     Harris-Foulkes estimate   =    -469.52550904 Ry
     estimated scf accuracy    <       2.35815783 Ry

     iteration #  9     ecut=    50.00 Ry     beta= 0.60
     Davidson diagonalization with overlap
     ethr =  2.68E-03,  avg # of iterations =  1.0

     total cpu time spent up to now is     1478.2 secs

     total energy              =    -469.30525761 Ry
     Harris-Foulkes estimate   =    -469.52170503 Ry
     estimated scf accuracy    <       2.33770961 Ry

     iteration # 10     ecut=    50.00 Ry     beta= 0.60
     Davidson diagonalization with overlap
     ethr =  2.68E-03,  avg # of iterations =  1.0

     total cpu time spent up to now is     1504.4 secs

     total energy              =    -468.63987322 Ry
     Harris-Foulkes estimate   =    -469.31684024 Ry
     estimated scf accuracy    <       1.64700464 Ry

     iteration # 11     ecut=    50.00 Ry     beta= 0.60
     Davidson diagonalization with overlap
     ethr =  2.68E-03,  avg # of iterations =  4.8

     total cpu time spent up to now is     1553.2 secs

     total energy              =    -468.87477054 Ry
     Harris-Foulkes estimate   =    -469.71136464 Ry
     estimated scf accuracy    <       9.61286835 Ry

     iteration # 12     ecut=    50.00 Ry     beta= 0.60
     Davidson diagonalization with overlap
     ethr =  2.68E-03,  avg # of iterations =  4.1

     total cpu time spent up to now is     1589.2 secs

     total energy              =    -469.15979426 Ry
     Harris-Foulkes estimate   =    -469.16396554 Ry
     estimated scf accuracy    <       0.82982496 Ry

     iteration # 13     ecut=    50.00 Ry     beta= 0.60
     Davidson diagonalization with overlap
     ethr =  1.66E-03,  avg # of iterations =  1.4

     total cpu time spent up to now is     1616.0 secs

     total energy              =    -468.99284012 Ry
     Harris-Foulkes estimate   =    -469.16761159 Ry
     estimated scf accuracy    <       0.75038013 Ry

     iteration # 14     ecut=    50.00 Ry     beta= 0.60
     Davidson diagonalization with overlap
     ethr =  1.50E-03,  avg # of iterations =  5.2

     total cpu time spent up to now is     1657.6 secs

     total energy              =    -469.08766804 Ry
     Harris-Foulkes estimate   =    -469.19454222 Ry
     estimated scf accuracy    <       0.45843927 Ry

     iteration # 15     ecut=    50.00 Ry     beta= 0.60
     Davidson diagonalization with overlap
     ethr =  9.17E-04,  avg # of iterations =  2.8

     total cpu time spent up to now is     1687.3 secs

     total energy              =    -469.13473466 Ry
     Harris-Foulkes estimate   =    -469.12519190 Ry
     estimated scf accuracy    <       0.02812802 Ry

     iteration # 16     ecut=    50.00 Ry     beta= 0.60
     Davidson diagonalization with overlap
     ethr =  5.63E-05,  avg # of iterations =  5.7

     total cpu time spent up to now is     1735.3 secs

     total energy              =    -469.15901761 Ry
     Harris-Foulkes estimate   =    -469.14995439 Ry
     estimated scf accuracy    <       0.11562796 Ry

     iteration # 17     ecut=    50.00 Ry     beta= 0.60
     Davidson diagonalization with overlap
     ethr =  5.63E-05,  avg # of iterations =  1.0

     total cpu time spent up to now is     1761.5 secs

     total energy              =    -469.12093734 Ry
     Harris-Foulkes estimate   =    -469.15975783 Ry
     estimated scf accuracy    <       0.16493316 Ry

     iteration # 18     ecut=    50.00 Ry     beta= 0.60
     Davidson diagonalization with overlap
     ethr =  5.63E-05,  avg # of iterations =  5.0

     total cpu time spent up to now is     1809.0 secs

     total energy              =    -469.13614295 Ry
     Harris-Foulkes estimate   =    -469.13733660 Ry
     estimated scf accuracy    <       0.00696939 Ry

     iteration # 19     ecut=    50.00 Ry     beta= 0.60
     Davidson diagonalization with overlap
     ethr =  1.39E-05,  avg # of iterations =  2.9

     total cpu time spent up to now is     1839.1 secs

     total energy              =    -469.13655067 Ry
     Harris-Foulkes estimate   =    -469.13707145 Ry
     estimated scf accuracy    <       0.00171430 Ry

     iteration # 20     ecut=    50.00 Ry     beta= 0.60
     Davidson diagonalization with overlap
     ethr =  3.43E-06,  avg # of iterations =  3.6

     total cpu time spent up to now is     1874.6 secs

     total energy              =    -469.13683345 Ry
     Harris-Foulkes estimate   =    -469.13684714 Ry
     estimated scf accuracy    <       0.00030398 Ry

     iteration # 21     ecut=    50.00 Ry     beta= 0.60
     Davidson diagonalization with overlap
     ethr =  6.08E-07,  avg # of iterations =  3.3

     total cpu time spent up to now is     1908.4 secs

     total energy              =    -469.13696359 Ry
     Harris-Foulkes estimate   =    -469.13690065 Ry
     estimated scf accuracy    <       0.00091317 Ry

     iteration # 22     ecut=    50.00 Ry     beta= 0.60
     Davidson diagonalization with overlap
     ethr =  6.08E-07,  avg # of iterations =  5.3

     total cpu time spent up to now is     1954.1 secs

     total energy              =    -469.13646397 Ry
     Harris-Foulkes estimate   =    -469.13714867 Ry
     estimated scf accuracy    <       0.00430451 Ry

     iteration # 23     ecut=    50.00 Ry     beta= 0.60
     Davidson diagonalization with overlap
     ethr =  6.08E-07,  avg # of iterations =  5.0

     total cpu time spent up to now is     1999.7 secs

     total energy              =    -469.13680756 Ry
     Harris-Foulkes estimate   =    -469.13684696 Ry
     estimated scf accuracy    <       0.00026144 Ry

     iteration # 24     ecut=    50.00 Ry     beta= 0.60
     Davidson diagonalization with overlap
     ethr =  5.23E-07,  avg # of iterations =  1.0

     total cpu time spent up to now is     2025.5 secs

     total energy              =    -469.13681654 Ry
     Harris-Foulkes estimate   =    -469.13682100 Ry
     estimated scf accuracy    <       0.00002341 Ry

     iteration # 25     ecut=    50.00 Ry     beta= 0.60
     Davidson diagonalization with overlap
     ethr =  4.68E-08,  avg # of iterations =  4.2

     total cpu time spent up to now is     2064.9 secs

     total energy              =    -469.13682459 Ry
     Harris-Foulkes estimate   =    -469.13682802 Ry
     estimated scf accuracy    <       0.00004987 Ry

     iteration # 26     ecut=    50.00 Ry     beta= 0.60
     Davidson diagonalization with overlap
     ethr =  4.68E-08,  avg # of iterations =  1.0

     total cpu time spent up to now is     2090.5 secs

     total energy              =    -469.13682422 Ry
     Harris-Foulkes estimate   =    -469.13682589 Ry
     estimated scf accuracy    <       0.00001898 Ry

     iteration # 27     ecut=    50.00 Ry     beta= 0.60
     Davidson diagonalization with overlap
     ethr =  3.80E-08,  avg # of iterations =  1.1

     total cpu time spent up to now is     2116.2 secs

     total energy              =    -469.13682364 Ry
     Harris-Foulkes estimate   =    -469.13682477 Ry
     estimated scf accuracy    <       0.00000754 Ry

     iteration # 28     ecut=    50.00 Ry     beta= 0.60
     Davidson diagonalization with overlap
     ethr =  1.51E-08,  avg # of iterations =  3.9

     total cpu time spent up to now is     2151.9 secs

     total energy              =    -469.13682481 Ry
     Harris-Foulkes estimate   =    -469.13682498 Ry
     estimated scf accuracy    <       0.00000169 Ry

     iteration # 29     ecut=    50.00 Ry     beta= 0.60
     Davidson diagonalization with overlap
     ethr =  3.38E-09,  avg # of iterations =  1.4

     total cpu time spent up to now is     2178.2 secs

     total energy              =    -469.13682480 Ry
     Harris-Foulkes estimate   =    -469.13682487 Ry
     estimated scf accuracy    <       0.00000055 Ry

     iteration # 30     ecut=    50.00 Ry     beta= 0.60
     Davidson diagonalization with overlap
     ethr =  1.10E-09,  avg # of iterations =  3.1

     total cpu time spent up to now is     2210.8 secs

     total energy              =    -469.13682486 Ry
     Harris-Foulkes estimate   =    -469.13682486 Ry
     estimated scf accuracy    <       0.00000002 Ry

     iteration # 31     ecut=    50.00 Ry     beta= 0.60
     Davidson diagonalization with overlap
     ethr =  4.32E-11,  avg # of iterations =  4.1

     total cpu time spent up to now is     2246.9 secs

     total energy              =    -469.13682487 Ry
     Harris-Foulkes estimate   =    -469.13682487 Ry
     estimated scf accuracy    <          1.7E-09 Ry

     iteration # 32     ecut=    50.00 Ry     beta= 0.60
     Davidson diagonalization with overlap
     ethr =  3.31E-12,  avg # of iterations =  4.6

     total cpu time spent up to now is     2286.9 secs

     total energy              =    -469.13682487 Ry
     Harris-Foulkes estimate   =    -469.13682487 Ry
     estimated scf accuracy    <          6.4E-09 Ry

     iteration # 33     ecut=    50.00 Ry     beta= 0.60
     Davidson diagonalization with overlap
     ethr =  3.31E-12,  avg # of iterations =  3.3

     total cpu time spent up to now is     2319.2 secs

     End of self-consistent calculation

     Number of k-points >= 100: set verbosity='high' to print the bands.

     the Fermi energy is    13.8077 ev

!    total energy              =    -469.13682487 Ry
     Harris-Foulkes estimate   =    -469.13682487 Ry
     estimated scf accuracy    <          7.9E-11 Ry

     The total energy is the sum of the following terms:

     one-electron contribution =    -133.20185157 Ry
     hartree contribution      =      84.13948642 Ry
     xc contribution           =     -65.57027288 Ry
     ewald contribution        =    -354.50286810 Ry
     smearing contrib. (-TS)   =      -0.00131874 Ry

     convergence has been achieved in  33 iterations

     Forces acting on atoms (cartesian axes, Ry/au):

     atom    1 type  2   force =     0.00128408    0.00128408   -0.00774881
     atom    2 type  2   force =    -0.00128694   -0.00128694    0.00775145
     atom    3 type  1   force =    -0.00564410   -0.00564410    0.00949986
     atom    4 type  1   force =     0.00564696    0.00564696   -0.00950251

     Total force =     0.020851     Total SCF correction =     0.000015


     Computing stress (Cartesian axis) and pressure

          total   stress  (Ry/bohr**3)                   (kbar)     P= -123.36
  -0.00083964   0.00001965   0.00001938       -123.52      2.89      2.85
   0.00001965  -0.00083964   0.00001938          2.89   -123.52      2.85
   0.00001938   0.00001938  -0.00083637          2.85      2.85   -123.03


     number of scf cycles    =   2
     number of bfgs steps    =   1

     enthalpy old            =    -469.0717659059 Ry
     enthalpy new            =    -469.1368248662 Ry

     CASE: enthalpy_new < enthalpy_old

     new trust radius        =       0.2231214801 bohr
     new conv_thr            =            1.0E-10 Ry

     new unit-cell volume =    455.91968 a.u.^3 (    67.56033 Ang^3 )
     density =      6.92003 g/cm^3

CELL_PARAMETERS (alat=  1.88972599)
   1.615803150   1.615803150  -1.610100908
  -3.227447683   3.227447683   0.000000000
   1.628216725   1.628216725   4.855130076

ATOMIC_POSITIONS (angstrom)
Ti      -1.604212598   4.850682769   1.609232429
Ti       0.010158536   3.237606219   3.252109910
Nb       0.008600910   6.463496277   3.261913587
Nb       0.013159789   3.240607472  -0.010683007


     NEW-OLD atomic charge density approx. for the potential
     extrapolated charge   42.29512, renormalised to   50.00000

     total cpu time spent up to now is     2335.3 secs

     Self-consistent Calculation

     iteration #  1     ecut=    50.00 Ry     beta= 0.60
     Davidson diagonalization with overlap
     c_bands:  1 eigenvalues not converged
     c_bands:  1 eigenvalues not converged
     c_bands:  1 eigenvalues not converged
     c_bands:  1 eigenvalues not converged
     c_bands:  1 eigenvalues not converged
     c_bands:  1 eigenvalues not converged
     c_bands:  1 eigenvalues not converged
     c_bands:  1 eigenvalues not converged
     c_bands:  1 eigenvalues not converged
     c_bands:  1 eigenvalues not converged
     c_bands:  1 eigenvalues not converged
     c_bands:  1 eigenvalues not converged
     c_bands:  1 eigenvalues not converged
     c_bands:  1 eigenvalues not converged
     c_bands:  1 eigenvalues not converged
     c_bands:  1 eigenvalues not converged
     c_bands:  1 eigenvalues not converged
     c_bands:  1 eigenvalues not converged
     c_bands:  1 eigenvalues not converged
     c_bands:  1 eigenvalues not converged
     c_bands:  1 eigenvalues not converged
     c_bands:  1 eigenvalues not converged
     c_bands:  1 eigenvalues not converged
     c_bands:  1 eigenvalues not converged
     c_bands:  1 eigenvalues not converged
     c_bands:  1 eigenvalues not converged
     ethr =  1.00E-06,  avg # of iterations = 15.3

     total cpu time spent up to now is     2447.9 secs

     total energy              =    -425.24184092 Ry
     Harris-Foulkes estimate   =    -483.77808054 Ry
     estimated scf accuracy    <      49.16204153 Ry

     iteration #  2     ecut=    50.00 Ry     beta= 0.60
     Davidson diagonalization with overlap
     ethr =  1.00E-02,  avg # of iterations =  7.3

     total cpu time spent up to now is     2510.9 secs

     total energy              =    -450.38069007 Ry
     Harris-Foulkes estimate   =    -535.08353447 Ry
     estimated scf accuracy    <     280.30861450 Ry

     iteration #  3     ecut=    50.00 Ry     beta= 0.60
     Davidson diagonalization with overlap
     ethr =  1.00E-02,  avg # of iterations =  5.0

     total cpu time spent up to now is     2564.6 secs

     total energy              =    -471.95898983 Ry
     Harris-Foulkes estimate   =    -476.16234783 Ry
     estimated scf accuracy    <      20.01873048 Ry

     iteration #  4     ecut=    50.00 Ry     beta= 0.60
     Davidson diagonalization with overlap
     ethr =  1.00E-02,  avg # of iterations =  2.0

     total cpu time spent up to now is     2593.2 secs

     total energy              =    -468.89919476 Ry
     Harris-Foulkes estimate   =    -472.30558863 Ry
     estimated scf accuracy    <      12.59517288 Ry

     iteration #  5     ecut=    50.00 Ry     beta= 0.60
     Davidson diagonalization with overlap
     ethr =  1.00E-02,  avg # of iterations =  3.0

     total cpu time spent up to now is     2625.7 secs

     total energy              =    -469.74717466 Ry
     Harris-Foulkes estimate   =    -469.63026451 Ry
     estimated scf accuracy    <       2.13383325 Ry

     iteration #  6     ecut=    50.00 Ry     beta= 0.60
     Davidson diagonalization with overlap
     ethr =  4.27E-03,  avg # of iterations =  1.3

     total cpu time spent up to now is     2651.8 secs

     total energy              =    -469.54418991 Ry
     Harris-Foulkes estimate   =    -469.80446696 Ry
     estimated scf accuracy    <       2.95785268 Ry

     iteration #  7     ecut=    50.00 Ry     beta= 0.60
     Davidson diagonalization with overlap
     ethr =  4.27E-03,  avg # of iterations =  1.0

     total cpu time spent up to now is     2677.5 secs

     total energy              =    -469.25773706 Ry
     Harris-Foulkes estimate   =    -469.56598280 Ry
     estimated scf accuracy    <       2.36536178 Ry

     iteration #  8     ecut=    50.00 Ry     beta= 0.60
     Davidson diagonalization with overlap
     ethr =  4.27E-03,  avg # of iterations =  1.0

     total cpu time spent up to now is     2703.2 secs

     total energy              =    -469.18762665 Ry
     Harris-Foulkes estimate   =    -469.29546265 Ry
     estimated scf accuracy    <       1.21994419 Ry

     iteration #  9     ecut=    50.00 Ry     beta= 0.60
     Davidson diagonalization with overlap
     ethr =  2.44E-03,  avg # of iterations =  1.5

     total cpu time spent up to now is     2729.5 secs

     total energy              =    -469.21006560 Ry
     Harris-Foulkes estimate   =    -469.21242271 Ry
     estimated scf accuracy    <       0.62497323 Ry

     iteration # 10     ecut=    50.00 Ry     beta= 0.60
     Davidson diagonalization with overlap
     ethr =  1.25E-03,  avg # of iterations =  1.3

     total cpu time spent up to now is     2755.8 secs

     total energy              =    -468.94645509 Ry
     Harris-Foulkes estimate   =    -469.21782104 Ry
     estimated scf accuracy    <       0.54443842 Ry

     iteration # 11     ecut=    50.00 Ry     beta= 0.60
     Davidson diagonalization with overlap
     ethr =  1.09E-03,  avg # of iterations =  4.3

     total cpu time spent up to now is     2801.7 secs

     total energy              =    -469.38352006 Ry
     Harris-Foulkes estimate   =    -469.37235785 Ry
     estimated scf accuracy    <       3.11801847 Ry

     iteration # 12     ecut=    50.00 Ry     beta= 0.60
     Davidson diagonalization with overlap
     ethr =  1.09E-03,  avg # of iterations =  1.0

     total cpu time spent up to now is     2827.4 secs

     total energy              =    -469.38263708 Ry
     Harris-Foulkes estimate   =    -469.38508582 Ry
     estimated scf accuracy    <       3.15862416 Ry

     iteration # 13     ecut=    50.00 Ry     beta= 0.60
     Davidson diagonalization with overlap
     ethr =  1.09E-03,  avg # of iterations =  1.0

     total cpu time spent up to now is     2853.1 secs

     total energy              =    -469.46275320 Ry
     Harris-Foulkes estimate   =    -469.38409098 Ry
     estimated scf accuracy    <       3.19307409 Ry

     iteration # 14     ecut=    50.00 Ry     beta= 0.60
     Davidson diagonalization with overlap
     ethr =  1.09E-03,  avg # of iterations =  1.0

     total cpu time spent up to now is     2878.8 secs

     total energy              =    -469.67531548 Ry
     Harris-Foulkes estimate   =    -469.47106174 Ry
     estimated scf accuracy    <       4.19281094 Ry

     iteration # 15     ecut=    50.00 Ry     beta= 0.60
     Davidson diagonalization with overlap
     ethr =  1.09E-03,  avg # of iterations =  2.5

     total cpu time spent up to now is     2907.8 secs

     total energy              =    -469.63757789 Ry
     Harris-Foulkes estimate   =    -469.71181479 Ry
     estimated scf accuracy    <       7.47382851 Ry

     iteration # 16     ecut=    50.00 Ry     beta= 0.60
     Davidson diagonalization with overlap
     ethr =  1.09E-03,  avg # of iterations =  1.0

     total cpu time spent up to now is     2933.5 secs

     total energy              =    -468.68813209 Ry
     Harris-Foulkes estimate   =    -469.64176485 Ry
     estimated scf accuracy    <       6.81782079 Ry

     iteration # 17     ecut=    50.00 Ry     beta= 0.60
     Davidson diagonalization with overlap
     ethr =  1.09E-03,  avg # of iterations =  4.7

     total cpu time spent up to now is     2975.3 secs

     total energy              =    -469.15678473 Ry
     Harris-Foulkes estimate   =    -469.15849698 Ry
     estimated scf accuracy    <       0.01010288 Ry

     iteration # 18     ecut=    50.00 Ry     beta= 0.60
     Davidson diagonalization with overlap
     ethr =  2.02E-05,  avg # of iterations =  5.5

     total cpu time spent up to now is     3017.3 secs

     total energy              =    -469.15836069 Ry
     Harris-Foulkes estimate   =    -469.15911690 Ry
     estimated scf accuracy    <       0.00360928 Ry

     iteration # 19     ecut=    50.00 Ry     beta= 0.60
     Davidson diagonalization with overlap
     ethr =  7.22E-06,  avg # of iterations =  3.4

     total cpu time spent up to now is     3049.3 secs

     total energy              =    -469.15867962 Ry
     Harris-Foulkes estimate   =    -469.15875533 Ry
     estimated scf accuracy    <       0.00049402 Ry

     iteration # 20     ecut=    50.00 Ry     beta= 0.60
     Davidson diagonalization with overlap
     ethr =  9.88E-07,  avg # of iterations =  4.9

     total cpu time spent up to now is     3085.9 secs

     total energy              =    -469.15873713 Ry
     Harris-Foulkes estimate   =    -469.15875722 Ry
     estimated scf accuracy    <       0.00008269 Ry

     iteration # 21     ecut=    50.00 Ry     beta= 0.60
     Davidson diagonalization with overlap
     ethr =  1.65E-07,  avg # of iterations =  4.0

     total cpu time spent up to now is     3122.1 secs

     total energy              =    -469.15875211 Ry
     Harris-Foulkes estimate   =    -469.15875651 Ry
     estimated scf accuracy    <       0.00002374 Ry

     iteration # 22     ecut=    50.00 Ry     beta= 0.60
     Davidson diagonalization with overlap
     ethr =  4.75E-08,  avg # of iterations =  2.2

     total cpu time spent up to now is     3150.6 secs

     total energy              =    -469.15875453 Ry
     Harris-Foulkes estimate   =    -469.15875468 Ry
     estimated scf accuracy    <       0.00000105 Ry

     iteration # 23     ecut=    50.00 Ry     beta= 0.60
     Davidson diagonalization with overlap
     ethr =  2.10E-09,  avg # of iterations =  4.4

     total cpu time spent up to now is     3193.4 secs

     total energy              =    -469.15875483 Ry
     Harris-Foulkes estimate   =    -469.15875521 Ry
     estimated scf accuracy    <       0.00000239 Ry

     iteration # 24     ecut=    50.00 Ry     beta= 0.60
     Davidson diagonalization with overlap
     ethr =  2.10E-09,  avg # of iterations =  3.8

     total cpu time spent up to now is     3227.2 secs

     total energy              =    -469.15875483 Ry
     Harris-Foulkes estimate   =    -469.15875517 Ry
     estimated scf accuracy    <       0.00000252 Ry

     iteration # 25     ecut=    50.00 Ry     beta= 0.60
     Davidson diagonalization with overlap
     ethr =  2.10E-09,  avg # of iterations =  1.9

     total cpu time spent up to now is     3254.6 secs

     total energy              =    -469.15875491 Ry
     Harris-Foulkes estimate   =    -469.15875495 Ry
     estimated scf accuracy    <       0.00000032 Ry

     iteration # 26     ecut=    50.00 Ry     beta= 0.60
     Davidson diagonalization with overlap
     ethr =  6.35E-10,  avg # of iterations =  3.4

     total cpu time spent up to now is     3288.9 secs

     total energy              =    -469.15875495 Ry
     Harris-Foulkes estimate   =    -469.15875495 Ry
     estimated scf accuracy    <          8.9E-09 Ry

     iteration # 27     ecut=    50.00 Ry     beta= 0.60
     Davidson diagonalization with overlap
     ethr =  1.78E-11,  avg # of iterations =  3.5

     total cpu time spent up to now is     3323.7 secs

     total energy              =    -469.15875495 Ry
     Harris-Foulkes estimate   =    -469.15875495 Ry
     estimated scf accuracy    <          1.4E-09 Ry

     iteration # 28     ecut=    50.00 Ry     beta= 0.60
     Davidson diagonalization with overlap
     ethr =  2.74E-12,  avg # of iterations =  3.6

     total cpu time spent up to now is     3358.7 secs

     total energy              =    -469.15875495 Ry
     Harris-Foulkes estimate   =    -469.15875495 Ry
     estimated scf accuracy    <          1.2E-09 Ry

     iteration # 29     ecut=    50.00 Ry     beta= 0.60
     Davidson diagonalization with overlap
     ethr =  2.41E-12,  avg # of iterations =  2.4

     total cpu time spent up to now is     3387.4 secs

     End of self-consistent calculation

     Number of k-points >= 100: set verbosity='high' to print the bands.

     the Fermi energy is    16.4564 ev

!    total energy              =    -469.15875495 Ry
     Harris-Foulkes estimate   =    -469.15875495 Ry
     estimated scf accuracy    <          5.6E-11 Ry

     The total energy is the sum of the following terms:

     one-electron contribution =    -107.08893478 Ry
     hartree contribution      =      76.54800497 Ry
     xc contribution           =     -66.12239924 Ry
     ewald contribution        =    -372.49391658 Ry
     smearing contrib. (-TS)   =      -0.00150933 Ry

     convergence has been achieved in  29 iterations

     Forces acting on atoms (cartesian axes, Ry/au):

     atom    1 type  2   force =     0.00525187    0.00525187   -0.00193657
     atom    2 type  2   force =    -0.00525114   -0.00525114    0.00193702
     atom    3 type  1   force =    -0.00950971   -0.00950971    0.00083835
     atom    4 type  1   force =     0.00950898    0.00950898   -0.00083880

     Total force =     0.021930     Total SCF correction =     0.000029


     Computing stress (Cartesian axis) and pressure

          total   stress  (Ry/bohr**3)                   (kbar)     P=   59.93
   0.00040214   0.00002316  -0.00000301         59.16      3.41     -0.44
   0.00002316   0.00040214  -0.00000301          3.41     59.16     -0.44
  -0.00000301  -0.00000301   0.00041790         -0.44     -0.44     61.48


     number of scf cycles    =   3
     number of bfgs steps    =   2

     enthalpy old            =    -469.1368248662 Ry
     enthalpy new            =    -469.1587549546 Ry

     CASE: enthalpy_new < enthalpy_old

     new trust radius        =       0.0651524379 bohr
     new conv_thr            =            1.0E-10 Ry

     new unit-cell volume =    476.88896 a.u.^3 (    70.66765 Ang^3 )
     density =      6.61575 g/cm^3

CELL_PARAMETERS (alat=  1.88972599)
   1.640777614   1.640777614  -1.635604459
  -3.275509429   3.275509429   0.000000000
   1.651478818   1.651478818   4.928219924

ATOMIC_POSITIONS (angstrom)
Ti      -1.626701366   4.924317492   1.633701295
Ti       0.008363837   3.283873266   3.299875420
Nb       0.006693272   6.557712129   3.308193135
Nb       0.015757050   3.291266479  -0.010231188


     NEW-OLD atomic charge density approx. for the potential
     extrapolated charge   52.11036, renormalised to   50.00000

     total cpu time spent up to now is     3403.5 secs

     Self-consistent Calculation

     iteration #  1     ecut=    50.00 Ry     beta= 0.60
     Davidson diagonalization with overlap
     c_bands:  1 eigenvalues not converged
     c_bands:  1 eigenvalues not converged
     c_bands:  1 eigenvalues not converged
     ethr =  1.00E-06,  avg # of iterations = 12.3

     total cpu time spent up to now is     3496.3 secs

     total energy              =    -468.74605358 Ry
     Harris-Foulkes estimate   =    -465.75850035 Ry
     estimated scf accuracy    <       0.32990543 Ry

     iteration #  2     ecut=    50.00 Ry     beta= 0.60
     Davidson diagonalization with overlap
     ethr =  6.60E-04,  avg # of iterations =  6.9

     total cpu time spent up to now is     3554.3 secs

     total energy              =    -468.54459246 Ry
     Harris-Foulkes estimate   =    -469.86663716 Ry
     estimated scf accuracy    <       9.57183191 Ry

     iteration #  3     ecut=    50.00 Ry     beta= 0.60
     Davidson diagonalization with overlap
     ethr =  6.60E-04,  avg # of iterations =  5.0

     total cpu time spent up to now is     3601.2 secs

     total energy              =    -469.11638464 Ry
     Harris-Foulkes estimate   =    -469.28596000 Ry
     estimated scf accuracy    <       0.65995930 Ry

     iteration #  4     ecut=    50.00 Ry     beta= 0.60
     Davidson diagonalization with overlap
     ethr =  6.60E-04,  avg # of iterations =  3.0

     total cpu time spent up to now is     3633.3 secs

     total energy              =    -469.17355213 Ry
     Harris-Foulkes estimate   =    -469.18227909 Ry
     estimated scf accuracy    <       0.08655386 Ry

     iteration #  5     ecut=    50.00 Ry     beta= 0.60
     Davidson diagonalization with overlap
     ethr =  1.73E-04,  avg # of iterations =  3.0

     total cpu time spent up to now is     3662.7 secs

     total energy              =    -469.16691557 Ry
     Harris-Foulkes estimate   =    -469.17687915 Ry
     estimated scf accuracy    <       0.06967021 Ry

     iteration #  6     ecut=    50.00 Ry     beta= 0.60
     Davidson diagonalization with overlap
     ethr =  1.39E-04,  avg # of iterations =  1.0

     total cpu time spent up to now is     3688.3 secs

     total energy              =    -469.16517343 Ry
     Harris-Foulkes estimate   =    -469.16873143 Ry
     estimated scf accuracy    <       0.04010984 Ry

     iteration #  7     ecut=    50.00 Ry     beta= 0.60
     Davidson diagonalization with overlap
     ethr =  8.02E-05,  avg # of iterations =  1.2

     total cpu time spent up to now is     3714.2 secs

     total energy              =    -469.16442283 Ry
     Harris-Foulkes estimate   =    -469.16610944 Ry
     estimated scf accuracy    <       0.02651072 Ry

     iteration #  8     ecut=    50.00 Ry     beta= 0.60
     Davidson diagonalization with overlap
     ethr =  5.30E-05,  avg # of iterations =  1.0

     total cpu time spent up to now is     3739.9 secs

     total energy              =    -469.16297309 Ry
     Harris-Foulkes estimate   =    -469.16480855 Ry
     estimated scf accuracy    <       0.01876437 Ry

     iteration #  9     ecut=    50.00 Ry     beta= 0.60
     Davidson diagonalization with overlap
     ethr =  3.75E-05,  avg # of iterations =  2.0

     total cpu time spent up to now is     3767.3 secs

     total energy              =    -469.16305847 Ry
     Harris-Foulkes estimate   =    -469.16342568 Ry
     estimated scf accuracy    <       0.00903459 Ry

     iteration # 10     ecut=    50.00 Ry     beta= 0.60
     Davidson diagonalization with overlap
     ethr =  1.81E-05,  avg # of iterations =  2.8

     total cpu time spent up to now is     3796.0 secs

     total energy              =    -469.16202290 Ry
     Harris-Foulkes estimate   =    -469.16319142 Ry
     estimated scf accuracy    <       0.00683620 Ry

     iteration # 11     ecut=    50.00 Ry     beta= 0.60
     Davidson diagonalization with overlap
     ethr =  1.37E-05,  avg # of iterations =  3.3

     total cpu time spent up to now is     3826.5 secs

     total energy              =    -469.16231803 Ry
     Harris-Foulkes estimate   =    -469.16246866 Ry
     estimated scf accuracy    <       0.00085776 Ry

     iteration # 12     ecut=    50.00 Ry     beta= 0.60
     Davidson diagonalization with overlap
     ethr =  1.72E-06,  avg # of iterations =  6.3

     total cpu time spent up to now is     3871.9 secs

     total energy              =    -469.16255900 Ry
     Harris-Foulkes estimate   =    -469.16257300 Ry
     estimated scf accuracy    <       0.00015755 Ry

     iteration # 13     ecut=    50.00 Ry     beta= 0.60
     Davidson diagonalization with overlap
     ethr =  3.15E-07,  avg # of iterations =  1.4

     total cpu time spent up to now is     3898.3 secs

     total energy              =    -469.16255523 Ry
     Harris-Foulkes estimate   =    -469.16256374 Ry
     estimated scf accuracy    <       0.00005346 Ry

     iteration # 14     ecut=    50.00 Ry     beta= 0.60
     Davidson diagonalization with overlap
     ethr =  1.07E-07,  avg # of iterations =  3.1

     total cpu time spent up to now is     3930.9 secs

     total energy              =    -469.16256200 Ry
     Harris-Foulkes estimate   =    -469.16256317 Ry
     estimated scf accuracy    <       0.00000792 Ry

     iteration # 15     ecut=    50.00 Ry     beta= 0.60
     Davidson diagonalization with overlap
     ethr =  1.58E-08,  avg # of iterations =  2.3

     total cpu time spent up to now is     3960.1 secs

     total energy              =    -469.16256247 Ry
     Harris-Foulkes estimate   =    -469.16256264 Ry
     estimated scf accuracy    <       0.00000097 Ry

     iteration # 16     ecut=    50.00 Ry     beta= 0.60
     Davidson diagonalization with overlap
     ethr =  1.93E-09,  avg # of iterations =  3.8

     total cpu time spent up to now is     3995.5 secs

     total energy              =    -469.16256263 Ry
     Harris-Foulkes estimate   =    -469.16256264 Ry
     estimated scf accuracy    <       0.00000006 Ry

     iteration # 17     ecut=    50.00 Ry     beta= 0.60
     Davidson diagonalization with overlap
     ethr =  1.17E-10,  avg # of iterations =  3.7

     total cpu time spent up to now is     4031.1 secs

     total energy              =    -469.16256264 Ry
     Harris-Foulkes estimate   =    -469.16256264 Ry
     estimated scf accuracy    <       0.00000004 Ry

     iteration # 18     ecut=    50.00 Ry     beta= 0.60
     Davidson diagonalization with overlap
     ethr =  8.07E-11,  avg # of iterations =  1.0

     total cpu time spent up to now is     4056.8 secs

     total energy              =    -469.16256264 Ry
     Harris-Foulkes estimate   =    -469.16256264 Ry
     estimated scf accuracy    <          6.7E-09 Ry

     iteration # 19     ecut=    50.00 Ry     beta= 0.60
     Davidson diagonalization with overlap
     ethr =  1.34E-11,  avg # of iterations =  3.5

     total cpu time spent up to now is     4091.0 secs

     total energy              =    -469.16256264 Ry
     Harris-Foulkes estimate   =    -469.16256264 Ry
     estimated scf accuracy    <          3.6E-10 Ry

     iteration # 20     ecut=    50.00 Ry     beta= 0.60
     Davidson diagonalization with overlap
     ethr =  7.18E-13,  avg # of iterations =  4.3

     total cpu time spent up to now is     4129.9 secs

     total energy              =    -469.16256264 Ry
     Harris-Foulkes estimate   =    -469.16256264 Ry
     estimated scf accuracy    <          1.8E-10 Ry

     iteration # 21     ecut=    50.00 Ry     beta= 0.60
     Davidson diagonalization with overlap
     ethr =  3.57E-13,  avg # of iterations =  1.1

     total cpu time spent up to now is     4155.6 secs

     End of self-consistent calculation

     Number of k-points >= 100: set verbosity='high' to print the bands.

     the Fermi energy is    15.6162 ev

!    total energy              =    -469.16256264 Ry
     Harris-Foulkes estimate   =    -469.16256264 Ry
     estimated scf accuracy    <          1.9E-11 Ry

     The total energy is the sum of the following terms:

     one-electron contribution =    -115.05173414 Ry
     hartree contribution      =      78.80687177 Ry
     xc contribution           =     -65.94514357 Ry
     ewald contribution        =    -366.97116629 Ry
     smearing contrib. (-TS)   =      -0.00139040 Ry

     convergence has been achieved in  21 iterations

     Forces acting on atoms (cartesian axes, Ry/au):

     atom    1 type  2   force =     0.00353263    0.00353263   -0.00432473
     atom    2 type  2   force =    -0.00353202   -0.00353202    0.00432506
     atom    3 type  1   force =    -0.00745735   -0.00745735    0.00419480
     atom    4 type  1   force =     0.00745674    0.00745674   -0.00419513

     Total force =     0.018573     Total SCF correction =     0.000010


     Computing stress (Cartesian axis) and pressure

          total   stress  (Ry/bohr**3)                   (kbar)     P=   -6.44
  -0.00004851   0.00002403   0.00000540         -7.14      3.54      0.79
   0.00002403  -0.00004851   0.00000540          3.54     -7.14      0.79
   0.00000540   0.00000540  -0.00003426          0.79      0.79     -5.04


     number of scf cycles    =   4
     number of bfgs steps    =   3

     enthalpy old            =    -469.1587549546 Ry
     enthalpy new            =    -469.1625626381 Ry

     CASE: enthalpy_new < enthalpy_old

     new trust radius        =       0.0101860243 bohr
     new conv_thr            =            1.0E-10 Ry

     new unit-cell volume =    474.96441 a.u.^3 (    70.38246 Ang^3 )
     density =      6.64255 g/cm^3

CELL_PARAMETERS (alat=  1.88972599)
   1.639103425   1.639103425  -1.633318432
  -3.268863814   3.268863814   0.000000000
   1.650681348   1.650681348   4.923117810

ATOMIC_POSITIONS (angstrom)
Ti      -1.619631018   4.918096610   1.630271817
Ti       0.009009652   3.277873466   3.298641988
Nb       0.007336998   6.545064625   3.307334844
Nb       0.021154860   3.290018674  -0.011750201


     NEW-OLD atomic charge density approx. for the potential
     extrapolated charge   49.80553, renormalised to   50.00000

     total cpu time spent up to now is     4171.7 secs

     Self-consistent Calculation

     iteration #  1     ecut=    50.00 Ry     beta= 0.60
     Davidson diagonalization with overlap
     ethr =  1.00E-06,  avg # of iterations =  4.9

     total cpu time spent up to now is     4228.9 secs

     total energy              =    -469.15765759 Ry
     Harris-Foulkes estimate   =    -469.48198286 Ry
     estimated scf accuracy    <       0.00463818 Ry

     iteration #  2     ecut=    50.00 Ry     beta= 0.60
     Davidson diagonalization with overlap
     c_bands:  1 eigenvalues not converged
     ethr =  9.28E-06,  avg # of iterations =  6.0

     total cpu time spent up to now is     4284.0 secs

     total energy              =    -469.15581566 Ry
     Harris-Foulkes estimate   =    -469.17340005 Ry
     estimated scf accuracy    <       0.11304124 Ry

     iteration #  3     ecut=    50.00 Ry     beta= 0.60
     Davidson diagonalization with overlap
     ethr =  9.28E-06,  avg # of iterations =  5.0

     total cpu time spent up to now is     4330.1 secs

     total energy              =    -469.16274917 Ry
     Harris-Foulkes estimate   =    -469.16416856 Ry
     estimated scf accuracy    <       0.00420582 Ry

     iteration #  4     ecut=    50.00 Ry     beta= 0.60
     Davidson diagonalization with overlap
     ethr =  8.41E-06,  avg # of iterations =  2.0

     total cpu time spent up to now is     4358.1 secs

     total energy              =    -469.16303061 Ry
     Harris-Foulkes estimate   =    -469.16322063 Ry
     estimated scf accuracy    <       0.00164330 Ry

     iteration #  5     ecut=    50.00 Ry     beta= 0.60
     Davidson diagonalization with overlap
     ethr =  3.29E-06,  avg # of iterations =  1.8

     total cpu time spent up to now is     4384.9 secs

     total energy              =    -469.16292462 Ry
     Harris-Foulkes estimate   =    -469.16308279 Ry
     estimated scf accuracy    <       0.00103750 Ry

     iteration #  6     ecut=    50.00 Ry     beta= 0.60
     Davidson diagonalization with overlap
     ethr =  2.07E-06,  avg # of iterations =  1.2

     total cpu time spent up to now is     4410.8 secs

     total energy              =    -469.16288284 Ry
     Harris-Foulkes estimate   =    -469.16296402 Ry
     estimated scf accuracy    <       0.00046762 Ry

     iteration #  7     ecut=    50.00 Ry     beta= 0.60
     Davidson diagonalization with overlap
     ethr =  9.35E-07,  avg # of iterations =  2.3

     total cpu time spent up to now is     4441.1 secs

     total energy              =    -469.16291247 Ry
     Harris-Foulkes estimate   =    -469.16292518 Ry
     estimated scf accuracy    <       0.00008474 Ry

     iteration #  8     ecut=    50.00 Ry     beta= 0.60
     Davidson diagonalization with overlap
     ethr =  1.69E-07,  avg # of iterations =  3.4

     total cpu time spent up to now is     4473.8 secs

     total energy              =    -469.16292230 Ry
     Harris-Foulkes estimate   =    -469.16292300 Ry
     estimated scf accuracy    <       0.00000238 Ry

     iteration #  9     ecut=    50.00 Ry     beta= 0.60
     Davidson diagonalization with overlap
     ethr =  4.76E-09,  avg # of iterations =  4.6

     total cpu time spent up to now is     4515.8 secs

     total energy              =    -469.16292352 Ry
     Harris-Foulkes estimate   =    -469.16292379 Ry
     estimated scf accuracy    <       0.00000079 Ry

     iteration # 10     ecut=    50.00 Ry     beta= 0.60
     Davidson diagonalization with overlap
     ethr =  1.59E-09,  avg # of iterations =  3.0

     total cpu time spent up to now is     4548.8 secs

     total energy              =    -469.16292366 Ry
     Harris-Foulkes estimate   =    -469.16292368 Ry
     estimated scf accuracy    <       0.00000013 Ry

     iteration # 11     ecut=    50.00 Ry     beta= 0.60
     Davidson diagonalization with overlap
     ethr =  2.61E-10,  avg # of iterations =  2.0

     total cpu time spent up to now is     4576.5 secs

     total energy              =    -469.16292367 Ry
     Harris-Foulkes estimate   =    -469.16292367 Ry
     estimated scf accuracy    <       0.00000003 Ry

     iteration # 12     ecut=    50.00 Ry     beta= 0.60
     Davidson diagonalization with overlap
     ethr =  6.82E-11,  avg # of iterations =  2.7

     total cpu time spent up to now is     4606.9 secs

     total energy              =    -469.16292367 Ry
     Harris-Foulkes estimate   =    -469.16292367 Ry
     estimated scf accuracy    <          3.8E-09 Ry

     iteration # 13     ecut=    50.00 Ry     beta= 0.60
     Davidson diagonalization with overlap
     ethr =  7.57E-12,  avg # of iterations =  4.1

     total cpu time spent up to now is     4644.7 secs

     total energy              =    -469.16292367 Ry
     Harris-Foulkes estimate   =    -469.16292367 Ry
     estimated scf accuracy    <          3.6E-10 Ry

     iteration # 14     ecut=    50.00 Ry     beta= 0.60
     Davidson diagonalization with overlap
     ethr =  7.29E-13,  avg # of iterations =  2.5

     total cpu time spent up to now is     4676.7 secs

     total energy              =    -469.16292367 Ry
     Harris-Foulkes estimate   =    -469.16292367 Ry
     estimated scf accuracy    <          2.1E-10 Ry

     iteration # 15     ecut=    50.00 Ry     beta= 0.60
     Davidson diagonalization with overlap
     ethr =  4.30E-13,  avg # of iterations =  1.0

     total cpu time spent up to now is     4702.2 secs

     End of self-consistent calculation

     Number of k-points >= 100: set verbosity='high' to print the bands.

     the Fermi energy is    15.6891 ev

!    total energy              =    -469.16292367 Ry
     Harris-Foulkes estimate   =    -469.16292367 Ry
     estimated scf accuracy    <          6.0E-11 Ry

     The total energy is the sum of the following terms:

     one-electron contribution =    -114.33452713 Ry
     hartree contribution      =      78.59955856 Ry
     xc contribution           =     -65.96066743 Ry
     ewald contribution        =    -367.46596147 Ry
     smearing contrib. (-TS)   =      -0.00132620 Ry

     convergence has been achieved in  15 iterations

     Forces acting on atoms (cartesian axes, Ry/au):

     atom    1 type  2   force =     0.00341664    0.00341664   -0.00417241
     atom    2 type  2   force =    -0.00341581   -0.00341581    0.00417201
     atom    3 type  1   force =    -0.00691570   -0.00691570    0.00405695
     atom    4 type  1   force =     0.00691488    0.00691488   -0.00405655

     Total force =     0.017484     Total SCF correction =     0.000016


     Computing stress (Cartesian axis) and pressure

          total   stress  (Ry/bohr**3)                   (kbar)     P=   -0.97
  -0.00001186   0.00002419   0.00000423         -1.74      3.56      0.62
   0.00002419  -0.00001186   0.00000423          3.56     -1.74      0.62
   0.00000423   0.00000423   0.00000383          0.62      0.62      0.56


     number of scf cycles    =   5
     number of bfgs steps    =   4

     enthalpy old            =    -469.1625626381 Ry
     enthalpy new            =    -469.1629236719 Ry

     CASE: enthalpy_new < enthalpy_old

     new trust radius        =       0.0152630099 bohr
     new conv_thr            =            1.0E-10 Ry

     new unit-cell volume =    473.79580 a.u.^3 (    70.20929 Ang^3 )
     density =      6.65894 g/cm^3

CELL_PARAMETERS (alat=  1.88972599)
   1.638645579   1.638645579  -1.632020506
  -3.262619981   3.262619981   0.000000000
   1.651360527   1.651360527   4.921501990

ATOMIC_POSITIONS (angstrom)
Ti      -1.610707925   4.914532038   1.627027607
Ti       0.009958391   3.272578372   3.300839820
Nb       0.008502998   6.533742961   3.309993696
Nb       0.029401858   3.292021839  -0.014157413


     NEW-OLD atomic charge density approx. for the potential
     extrapolated charge   49.88162, renormalised to   50.00000

     total cpu time spent up to now is     4719.3 secs

     Self-consistent Calculation

     iteration #  1     ecut=    50.00 Ry     beta= 0.60
     Davidson diagonalization with overlap
     ethr =  1.00E-06,  avg # of iterations =  4.7

     total cpu time spent up to now is     4776.8 secs

     total energy              =    -469.16155254 Ry
     Harris-Foulkes estimate   =    -469.35675126 Ry
     estimated scf accuracy    <       0.00157416 Ry

     iteration #  2     ecut=    50.00 Ry     beta= 0.60
     Davidson diagonalization with overlap
     c_bands:  1 eigenvalues not converged
     ethr =  3.15E-06,  avg # of iterations =  5.7

     total cpu time spent up to now is     4831.5 secs

     total energy              =    -469.16101923 Ry
     Harris-Foulkes estimate   =    -469.16671953 Ry
     estimated scf accuracy    <       0.03658338 Ry

     iteration #  3     ecut=    50.00 Ry     beta= 0.60
     Davidson diagonalization with overlap
     ethr =  3.15E-06,  avg # of iterations =  5.0

     total cpu time spent up to now is     4877.4 secs

     total energy              =    -469.16327720 Ry
     Harris-Foulkes estimate   =    -469.16380651 Ry
     estimated scf accuracy    <       0.00160166 Ry

     iteration #  4     ecut=    50.00 Ry     beta= 0.60
     Davidson diagonalization with overlap
     ethr =  3.15E-06,  avg # of iterations =  2.0

     total cpu time spent up to now is     4905.5 secs

     total energy              =    -469.16338770 Ry
     Harris-Foulkes estimate   =    -469.16346042 Ry
     estimated scf accuracy    <       0.00054363 Ry

     iteration #  5     ecut=    50.00 Ry     beta= 0.60
     Davidson diagonalization with overlap
     ethr =  1.09E-06,  avg # of iterations =  1.9

     total cpu time spent up to now is     4932.9 secs

     total energy              =    -469.16331183 Ry
     Harris-Foulkes estimate   =    -469.16340880 Ry
     estimated scf accuracy    <       0.00032242 Ry

     iteration #  6     ecut=    50.00 Ry     beta= 0.60
     Davidson diagonalization with overlap
     ethr =  6.45E-07,  avg # of iterations =  3.0

     total cpu time spent up to now is     4965.1 secs

     total energy              =    -469.16335632 Ry
     Harris-Foulkes estimate   =    -469.16335811 Ry
     estimated scf accuracy    <       0.00002037 Ry

     iteration #  7     ecut=    50.00 Ry     beta= 0.60
     Davidson diagonalization with overlap
     ethr =  4.07E-08,  avg # of iterations =  3.1

     total cpu time spent up to now is     4997.9 secs

     total energy              =    -469.16335898 Ry
     Harris-Foulkes estimate   =    -469.16336032 Ry
     estimated scf accuracy    <       0.00001093 Ry

     iteration #  8     ecut=    50.00 Ry     beta= 0.60
     Davidson diagonalization with overlap
     ethr =  2.19E-08,  avg # of iterations =  2.5

     total cpu time spent up to now is     5026.6 secs

     total energy              =    -469.16335928 Ry
     Harris-Foulkes estimate   =    -469.16335980 Ry
     estimated scf accuracy    <       0.00000261 Ry

     iteration #  9     ecut=    50.00 Ry     beta= 0.60
     Davidson diagonalization with overlap
     ethr =  5.23E-09,  avg # of iterations =  3.2

     total cpu time spent up to now is     5057.8 secs

     total energy              =    -469.16335854 Ry
     Harris-Foulkes estimate   =    -469.16335950 Ry
     estimated scf accuracy    <       0.00000164 Ry

     iteration # 10     ecut=    50.00 Ry     beta= 0.60
     Davidson diagonalization with overlap
     ethr =  3.27E-09,  avg # of iterations =  3.0

     total cpu time spent up to now is     5094.4 secs

     total energy              =    -469.16335898 Ry
     Harris-Foulkes estimate   =    -469.16335904 Ry
     estimated scf accuracy    <       0.00000014 Ry

     iteration # 11     ecut=    50.00 Ry     beta= 0.60
     Davidson diagonalization with overlap
     ethr =  2.85E-10,  avg # of iterations =  3.2

     total cpu time spent up to now is     5127.9 secs

     total energy              =    -469.16335900 Ry
     Harris-Foulkes estimate   =    -469.16335901 Ry
     estimated scf accuracy    <       0.00000002 Ry

     iteration # 12     ecut=    50.00 Ry     beta= 0.60
     Davidson diagonalization with overlap
     ethr =  3.51E-11,  avg # of iterations =  3.5

     total cpu time spent up to now is     5162.9 secs

     total energy              =    -469.16335901 Ry
     Harris-Foulkes estimate   =    -469.16335901 Ry
     estimated scf accuracy    <          3.4E-10 Ry

     iteration # 13     ecut=    50.00 Ry     beta= 0.60
     Davidson diagonalization with overlap
     ethr =  6.70E-13,  avg # of iterations =  5.0

     total cpu time spent up to now is     5206.7 secs

     End of self-consistent calculation

     Number of k-points >= 100: set verbosity='high' to print the bands.

     the Fermi energy is    15.7329 ev

!    total energy              =    -469.16335901 Ry
     Harris-Foulkes estimate   =    -469.16335901 Ry
     estimated scf accuracy    <          5.8E-11 Ry

     The total energy is the sum of the following terms:

     one-electron contribution =    -113.89877838 Ry
     hartree contribution      =      78.47314239 Ry
     xc contribution           =     -65.97022180 Ry
     ewald contribution        =    -367.76627824 Ry
     smearing contrib. (-TS)   =      -0.00122298 Ry

     convergence has been achieved in  13 iterations

     Forces acting on atoms (cartesian axes, Ry/au):

     atom    1 type  2   force =     0.00313353    0.00313353   -0.00404263
     atom    2 type  2   force =    -0.00313212   -0.00313212    0.00404207
     atom    3 type  1   force =    -0.00596510   -0.00596510    0.00402544
     atom    4 type  1   force =     0.00596370    0.00596370   -0.00402487

     Total force =     0.015705     Total SCF correction =     0.000025


     Computing stress (Cartesian axis) and pressure

          total   stress  (Ry/bohr**3)                   (kbar)     P=    2.31
   0.00000976   0.00002375   0.00000291          1.44      3.49      0.43
   0.00002375   0.00000976   0.00000291          3.49      1.44      0.43
   0.00000291   0.00000291   0.00002753          0.43      0.43      4.05


     number of scf cycles    =   6
     number of bfgs steps    =   5

     enthalpy old            =    -469.1629236719 Ry
     enthalpy new            =    -469.1633590060 Ry

     CASE: enthalpy_new < enthalpy_old

     new trust radius        =       0.0228871417 bohr
     new conv_thr            =            1.0E-10 Ry

     new unit-cell volume =    472.97786 a.u.^3 (    70.08809 Ang^3 )
     density =      6.67045 g/cm^3

CELL_PARAMETERS (alat=  1.88972599)
   1.639124791   1.639124791  -1.631361349
  -3.255059997   3.255059997   0.000000000
   1.653378042   1.653378042   4.922606442

ATOMIC_POSITIONS (angstrom)
Ti      -1.597970469   4.912149526   1.623068934
Ti       0.011443384   3.266503381   3.306673319
Nb       0.010668549   6.520788544   3.316479457
Nb       0.041935628   3.296995625  -0.018108978


     NEW-OLD atomic charge density approx. for the potential
     extrapolated charge   49.91700, renormalised to   50.00000

     total cpu time spent up to now is     5222.7 secs

     Self-consistent Calculation

     iteration #  1     ecut=    50.00 Ry     beta= 0.60
     Davidson diagonalization with overlap
     ethr =  1.00E-06,  avg # of iterations =  4.9

     total cpu time spent up to now is     5282.3 secs

     total energy              =    -469.16310670 Ry
     Harris-Foulkes estimate   =    -469.29915636 Ry
     estimated scf accuracy    <       0.00072893 Ry

     iteration #  2     ecut=    50.00 Ry     beta= 0.60
     Davidson diagonalization with overlap
     ethr =  1.46E-06,  avg # of iterations =  5.2

     total cpu time spent up to now is     5335.6 secs

     total energy              =    -469.16299486 Ry
     Harris-Foulkes estimate   =    -469.16520083 Ry
     estimated scf accuracy    <       0.01343477 Ry

     iteration #  3     ecut=    50.00 Ry     beta= 0.60
     Davidson diagonalization with overlap
     ethr =  1.46E-06,  avg # of iterations =  4.9

     total cpu time spent up to now is     5380.5 secs

     total energy              =    -469.16384779 Ry
     Harris-Foulkes estimate   =    -469.16413840 Ry
     estimated scf accuracy    <       0.00094492 Ry

     iteration #  4     ecut=    50.00 Ry     beta= 0.60
     Davidson diagonalization with overlap
     ethr =  1.46E-06,  avg # of iterations =  2.1

     total cpu time spent up to now is     5409.9 secs

     total energy              =    -469.16392330 Ry
     Harris-Foulkes estimate   =    -469.16396409 Ry
     estimated scf accuracy    <       0.00024778 Ry

     iteration #  5     ecut=    50.00 Ry     beta= 0.60
     Davidson diagonalization with overlap
     ethr =  4.96E-07,  avg # of iterations =  1.7

     total cpu time spent up to now is     5436.6 secs

     total energy              =    -469.16391470 Ry
     Harris-Foulkes estimate   =    -469.16393525 Ry
     estimated scf accuracy    <       0.00012725 Ry

     iteration #  6     ecut=    50.00 Ry     beta= 0.60
     Davidson diagonalization with overlap
     ethr =  2.55E-07,  avg # of iterations =  2.6

     total cpu time spent up to now is     5465.6 secs

     total energy              =    -469.16390234 Ry
     Harris-Foulkes estimate   =    -469.16393232 Ry
     estimated scf accuracy    <       0.00018514 Ry

     iteration #  7     ecut=    50.00 Ry     beta= 0.60
     Davidson diagonalization with overlap
     ethr =  2.55E-07,  avg # of iterations =  2.1

     total cpu time spent up to now is     5493.4 secs

     total energy              =    -469.16391546 Ry
     Harris-Foulkes estimate   =    -469.16391649 Ry
     estimated scf accuracy    <       0.00000652 Ry

     iteration #  8     ecut=    50.00 Ry     beta= 0.60
     Davidson diagonalization with overlap
     ethr =  1.30E-08,  avg # of iterations =  4.4

     total cpu time spent up to now is     5534.5 secs

     total energy              =    -469.16391789 Ry
     Harris-Foulkes estimate   =    -469.16391833 Ry
     estimated scf accuracy    <       0.00000339 Ry

     iteration #  9     ecut=    50.00 Ry     beta= 0.60
     Davidson diagonalization with overlap
     ethr =  6.78E-09,  avg # of iterations =  1.0

     total cpu time spent up to now is     5560.0 secs

     total energy              =    -469.16391770 Ry
     Harris-Foulkes estimate   =    -469.16391802 Ry
     estimated scf accuracy    <       0.00000207 Ry

     iteration # 10     ecut=    50.00 Ry     beta= 0.60
     Davidson diagonalization with overlap
     ethr =  4.15E-09,  avg # of iterations =  1.1

     total cpu time spent up to now is     5585.8 secs

     total energy              =    -469.16391761 Ry
     Harris-Foulkes estimate   =    -469.16391778 Ry
     estimated scf accuracy    <       0.00000064 Ry

     iteration # 11     ecut=    50.00 Ry     beta= 0.60
     Davidson diagonalization with overlap
     ethr =  1.28E-09,  avg # of iterations =  3.4

     total cpu time spent up to now is     5619.5 secs

     total energy              =    -469.16391771 Ry
     Harris-Foulkes estimate   =    -469.16391771 Ry
     estimated scf accuracy    <       0.00000003 Ry

     iteration # 12     ecut=    50.00 Ry     beta= 0.60
     Davidson diagonalization with overlap
     ethr =  5.25E-11,  avg # of iterations =  4.2

     total cpu time spent up to now is     5658.7 secs

     total energy              =    -469.16391772 Ry
     Harris-Foulkes estimate   =    -469.16391772 Ry
     estimated scf accuracy    <          2.1E-09 Ry

     iteration # 13     ecut=    50.00 Ry     beta= 0.60
     Davidson diagonalization with overlap
     ethr =  4.23E-12,  avg # of iterations =  3.8

     total cpu time spent up to now is     5694.4 secs

     total energy              =    -469.16391772 Ry
     Harris-Foulkes estimate   =    -469.16391772 Ry
     estimated scf accuracy    <          9.6E-10 Ry

     iteration # 14     ecut=    50.00 Ry     beta= 0.60
     Davidson diagonalization with overlap
     ethr =  1.93E-12,  avg # of iterations =  1.4

     total cpu time spent up to now is     5720.7 secs

     total energy              =    -469.16391772 Ry
     Harris-Foulkes estimate   =    -469.16391772 Ry
     estimated scf accuracy    <          1.8E-10 Ry

     iteration # 15     ecut=    50.00 Ry     beta= 0.60
     Davidson diagonalization with overlap
     ethr =  3.58E-13,  avg # of iterations =  3.4

     total cpu time spent up to now is     5754.0 secs

     End of self-consistent calculation

     Number of k-points >= 100: set verbosity='high' to print the bands.

     the Fermi energy is    15.7632 ev

!    total energy              =    -469.16391772 Ry
     Harris-Foulkes estimate   =    -469.16391772 Ry
     estimated scf accuracy    <          3.2E-11 Ry

     The total energy is the sum of the following terms:

     one-electron contribution =    -113.60178352 Ry
     hartree contribution      =      78.38768277 Ry
     xc contribution           =     -65.97717383 Ry
     ewald contribution        =    -367.97157485 Ry
     smearing contrib. (-TS)   =      -0.00106828 Ry

     convergence has been achieved in  15 iterations

     Forces acting on atoms (cartesian axes, Ry/au):

     atom    1 type  2   force =     0.00265995    0.00265995   -0.00380340
     atom    2 type  2   force =    -0.00265844   -0.00265844    0.00380238
     atom    3 type  1   force =    -0.00445374   -0.00445374    0.00396712
     atom    4 type  1   force =     0.00445223    0.00445223   -0.00396610

     Total force =     0.012961     Total SCF correction =     0.000012


[...]
     c_bands:  1 eigenvalues not converged
     c_bands:  1 eigenvalues not converged
     c_bands:  1 eigenvalues not converged
     c_bands:  1 eigenvalues not converged
     c_bands:  1 eigenvalues not converged
     c_bands:  2 eigenvalues not converged
     c_bands:  1 eigenvalues not converged
     c_bands:  1 eigenvalues not converged
     c_bands:  1 eigenvalues not converged
     c_bands:  1 eigenvalues not converged
     c_bands:  1 eigenvalues not converged
     c_bands:  1 eigenvalues not converged
     c_bands:  1 eigenvalues not converged
     c_bands:  1 eigenvalues not converged
     c_bands:  2 eigenvalues not converged
     c_bands:  1 eigenvalues not converged
     c_bands:  1 eigenvalues not converged
     c_bands:  1 eigenvalues not converged
     c_bands:  1 eigenvalues not converged
     c_bands:  2 eigenvalues not converged
     c_bands:  2 eigenvalues not converged
     c_bands:  1 eigenvalues not converged
     c_bands:  1 eigenvalues not converged
     c_bands:  1 eigenvalues not converged
     c_bands:  2 eigenvalues not converged
     c_bands:  1 eigenvalues not converged
     c_bands:  1 eigenvalues not converged
     c_bands:  1 eigenvalues not converged
     c_bands:  1 eigenvalues not converged
     c_bands:  1 eigenvalues not converged
     c_bands:  1 eigenvalues not converged
     c_bands:  1 eigenvalues not converged
     c_bands:  1 eigenvalues not converged
     c_bands:  1 eigenvalues not converged
     c_bands:  1 eigenvalues not converged
     c_bands:  1 eigenvalues not converged
     c_bands:  1 eigenvalues not converged
     c_bands:  1 eigenvalues not converged
     c_bands:  1 eigenvalues not converged
     c_bands:  1 eigenvalues not converged
     c_bands:  2 eigenvalues not converged
     c_bands:  1 eigenvalues not converged
     c_bands:  1 eigenvalues not converged
     c_bands:  1 eigenvalues not converged
     c_bands:  1 eigenvalues not converged
     c_bands:  1 eigenvalues not converged
     c_bands:  1 eigenvalues not converged
     c_bands:  1 eigenvalues not converged
     c_bands:  1 eigenvalues not converged
     c_bands:  1 eigenvalues not converged
     c_bands:  2 eigenvalues not converged
     c_bands:  1 eigenvalues not converged
     c_bands:  1 eigenvalues not converged
     c_bands:  1 eigenvalues not converged
     c_bands:  1 eigenvalues not converged
     c_bands:  1 eigenvalues not converged
     c_bands:  1 eigenvalues not converged
     c_bands:  1 eigenvalues not converged
     c_bands:  1 eigenvalues not converged
     c_bands:  1 eigenvalues not converged
     c_bands:  1 eigenvalues not converged
     c_bands:  1 eigenvalues not converged
     c_bands:  1 eigenvalues not converged
     c_bands:  1 eigenvalues not converged
     c_bands:  1 eigenvalues not converged
     c_bands:  1 eigenvalues not converged
     ethr =  1.00E-06,  avg # of iterations = 15.3

     total cpu time spent up to now is    17514.3 secs

     total energy              =    -457.44594156 Ry
     Harris-Foulkes estimate   =    -471.19078798 Ry
     estimated scf accuracy    <      17.24982127 Ry

     iteration #  2     ecut=    50.00 Ry     beta= 0.60
     Davidson diagonalization with overlap
     ethr =  1.00E-02,  avg # of iterations =  5.3

     total cpu time spent up to now is    17558.4 secs

     total energy              =    -467.12074553 Ry
     Harris-Foulkes estimate   =    -488.99868860 Ry
     estimated scf accuracy    <      61.98926295 Ry

     iteration #  3     ecut=    50.00 Ry     beta= 0.60
     Davidson diagonalization with overlap
     ethr =  1.00E-02,  avg # of iterations =  3.6

     total cpu time spent up to now is    17591.1 secs

     total energy              =    -469.78572043 Ry
     Harris-Foulkes estimate   =    -470.96199175 Ry
     estimated scf accuracy    <      11.77741512 Ry

     iteration #  4     ecut=    50.00 Ry     beta= 0.60
     Davidson diagonalization with overlap
     ethr =  1.00E-02,  avg # of iterations =  1.1

     total cpu time spent up to now is    17611.3 secs

     total energy              =    -469.58979473 Ry
     Harris-Foulkes estimate   =    -469.89872380 Ry
     estimated scf accuracy    <       7.14253407 Ry

     iteration #  5     ecut=    50.00 Ry     beta= 0.60
     Davidson diagonalization with overlap
     ethr =  1.00E-02,  avg # of iterations =  1.0

     total cpu time spent up to now is    17631.4 secs

     total energy              =    -468.63365730 Ry
     Harris-Foulkes estimate   =    -469.63536751 Ry
     estimated scf accuracy    <       5.71858259 Ry

     iteration #  6     ecut=    50.00 Ry     beta= 0.60
     Davidson diagonalization with overlap
     ethr =  1.00E-02,  avg # of iterations =  3.5

     total cpu time spent up to now is    17656.2 secs

     total energy              =    -469.06335335 Ry
     Harris-Foulkes estimate   =    -469.02931772 Ry
     estimated scf accuracy    <       0.40023376 Ry

     iteration #  7     ecut=    50.00 Ry     beta= 0.60
     Davidson diagonalization with overlap
     ethr =  8.00E-04,  avg # of iterations =  5.3

     total cpu time spent up to now is    17692.6 secs

     total energy              =    -469.17335810 Ry
     Harris-Foulkes estimate   =    -469.18563642 Ry
     estimated scf accuracy    <       0.17891350 Ry

     iteration #  8     ecut=    50.00 Ry     beta= 0.60
     Davidson diagonalization with overlap
     ethr =  3.58E-04,  avg # of iterations =  1.0

     total cpu time spent up to now is    17712.8 secs

     total energy              =    -469.14388725 Ry
     Harris-Foulkes estimate   =    -469.17600871 Ry
     estimated scf accuracy    <       0.13942834 Ry

     iteration #  9     ecut=    50.00 Ry     beta= 0.60
     Davidson diagonalization with overlap
     ethr =  2.79E-04,  avg # of iterations =  3.4

     total cpu time spent up to now is    17738.9 secs

     total energy              =    -469.16672689 Ry
     Harris-Foulkes estimate   =    -469.16771822 Ry
     estimated scf accuracy    <       0.04077984 Ry

     iteration # 10     ecut=    50.00 Ry     beta= 0.60
     Davidson diagonalization with overlap
     ethr =  8.16E-05,  avg # of iterations =  3.2

     total cpu time spent up to now is    17762.8 secs

     total energy              =    -469.16956081 Ry
     Harris-Foulkes estimate   =    -469.16780646 Ry
     estimated scf accuracy    <       0.03469390 Ry

     iteration # 11     ecut=    50.00 Ry     beta= 0.60
     Davidson diagonalization with overlap
     ethr =  6.94E-05,  avg # of iterations =  1.0

     total cpu time spent up to now is    17782.9 secs

     total energy              =    -469.17046092 Ry
     Harris-Foulkes estimate   =    -469.17007496 Ry
     estimated scf accuracy    <       0.05769036 Ry

     iteration # 12     ecut=    50.00 Ry     beta= 0.60
     Davidson diagonalization with overlap
     ethr =  6.94E-05,  avg # of iterations =  1.0

     total cpu time spent up to now is    17803.0 secs

     total energy              =    -469.15147876 Ry
     Harris-Foulkes estimate   =    -469.17070492 Ry
     estimated scf accuracy    <       0.06757707 Ry

     iteration # 13     ecut=    50.00 Ry     beta= 0.60
     Davidson diagonalization with overlap
     ethr =  6.94E-05,  avg # of iterations =  4.3

     total cpu time spent up to now is    17834.7 secs

     total energy              =    -469.16961678 Ry
     Harris-Foulkes estimate   =    -469.17047516 Ry
     estimated scf accuracy    <       0.06400520 Ry

     iteration # 14     ecut=    50.00 Ry     beta= 0.60
     Davidson diagonalization with overlap
     ethr =  6.94E-05,  avg # of iterations =  1.0

     total cpu time spent up to now is    17855.3 secs

     total energy              =    -469.16086437 Ry
     Harris-Foulkes estimate   =    -469.16978363 Ry
     estimated scf accuracy    <       0.05728102 Ry

     iteration # 15     ecut=    50.00 Ry     beta= 0.60
     Davidson diagonalization with overlap
     ethr =  6.94E-05,  avg # of iterations =  2.4

     total cpu time spent up to now is    17878.2 secs

     total energy              =    -469.16372200 Ry
     Harris-Foulkes estimate   =    -469.16397062 Ry
     estimated scf accuracy    <       0.00267072 Ry

     iteration # 16     ecut=    50.00 Ry     beta= 0.60
     Davidson diagonalization with overlap
     ethr =  5.34E-06,  avg # of iterations =  5.5

     total cpu time spent up to now is    17916.5 secs

     total energy              =    -469.16501911 Ry
     Harris-Foulkes estimate   =    -469.16510287 Ry
     estimated scf accuracy    <       0.00107905 Ry

     iteration # 17     ecut=    50.00 Ry     beta= 0.60
     Davidson diagonalization with overlap
     ethr =  2.16E-06,  avg # of iterations =  1.0

     total cpu time spent up to now is    17937.3 secs

     total energy              =    -469.16503037 Ry
     Harris-Foulkes estimate   =    -469.16503756 Ry
     estimated scf accuracy    <       0.00047372 Ry

     iteration # 18     ecut=    50.00 Ry     beta= 0.60
     Davidson diagonalization with overlap
     ethr =  9.47E-07,  avg # of iterations =  1.0

     total cpu time spent up to now is    17957.8 secs

     total energy              =    -469.16501338 Ry
     Harris-Foulkes estimate   =    -469.16503331 Ry
     estimated scf accuracy    <       0.00040868 Ry

     iteration # 19     ecut=    50.00 Ry     beta= 0.60
     Davidson diagonalization with overlap
     ethr =  8.17E-07,  avg # of iterations =  1.0

     total cpu time spent up to now is    17978.4 secs

     total energy              =    -469.16501102 Ry
     Harris-Foulkes estimate   =    -469.16501796 Ry
     estimated scf accuracy    <       0.00020886 Ry

     iteration # 20     ecut=    50.00 Ry     beta= 0.60
     Davidson diagonalization with overlap
     ethr =  4.18E-07,  avg # of iterations =  1.0

     total cpu time spent up to now is    17998.9 secs

     total energy              =    -469.16500374 Ry
     Harris-Foulkes estimate   =    -469.16501371 Ry
     estimated scf accuracy    <       0.00013848 Ry

     iteration # 21     ecut=    50.00 Ry     beta= 0.60
     Davidson diagonalization with overlap
     ethr =  2.77E-07,  avg # of iterations =  2.6

     total cpu time spent up to now is    18022.4 secs

     total energy              =    -469.16500824 Ry
     Harris-Foulkes estimate   =    -469.16500982 Ry
     estimated scf accuracy    <       0.00002796 Ry

     iteration # 22     ecut=    50.00 Ry     beta= 0.60
     Davidson diagonalization with overlap
     ethr =  5.59E-08,  avg # of iterations =  4.0

     total cpu time spent up to now is    18051.2 secs

     total energy              =    -469.16501307 Ry
     Harris-Foulkes estimate   =    -469.16501302 Ry
     estimated scf accuracy    <       0.00000087 Ry

     iteration # 23     ecut=    50.00 Ry     beta= 0.60
     Davidson diagonalization with overlap
     ethr =  1.75E-09,  avg # of iterations =  3.8

     total cpu time spent up to now is    18078.6 secs

     total energy              =    -469.16501321 Ry
     Harris-Foulkes estimate   =    -469.16501319 Ry
     estimated scf accuracy    <       0.00000114 Ry

     iteration # 24     ecut=    50.00 Ry     beta= 0.60
     Davidson diagonalization with overlap
     ethr =  1.75E-09,  avg # of iterations =  1.0

     total cpu time spent up to now is    18099.0 secs

     total energy              =    -469.16501308 Ry
     Harris-Foulkes estimate   =    -469.16501323 Ry
     estimated scf accuracy    <       0.00000168 Ry

     iteration # 25     ecut=    50.00 Ry     beta= 0.60
     Davidson diagonalization with overlap
     ethr =  1.75E-09,  avg # of iterations =  1.0

     total cpu time spent up to now is    18119.4 secs

     total energy              =    -469.16501308 Ry
     Harris-Foulkes estimate   =    -469.16501311 Ry
     estimated scf accuracy    <       0.00000055 Ry

     iteration # 26     ecut=    50.00 Ry     beta= 0.60
     Davidson diagonalization with overlap
     ethr =  1.10E-09,  avg # of iterations =  1.0

     total cpu time spent up to now is    18139.8 secs

     total energy              =    -469.16501306 Ry
     Harris-Foulkes estimate   =    -469.16501309 Ry
     estimated scf accuracy    <       0.00000029 Ry

     iteration # 27     ecut=    50.00 Ry     beta= 0.60
     Davidson diagonalization with overlap
     ethr =  5.74E-10,  avg # of iterations =  2.9

     total cpu time spent up to now is    18163.5 secs

     total energy              =    -469.16501308 Ry
     Harris-Foulkes estimate   =    -469.16501308 Ry
     estimated scf accuracy    <       0.00000002 Ry

     iteration # 28     ecut=    50.00 Ry     beta= 0.60
     Davidson diagonalization with overlap
     ethr =  4.53E-11,  avg # of iterations =  4.3

     total cpu time spent up to now is    18195.3 secs

     total energy              =    -469.16501309 Ry
     Harris-Foulkes estimate   =    -469.16501309 Ry
     estimated scf accuracy    <       0.00000004 Ry

     iteration # 29     ecut=    50.00 Ry     beta= 0.60
     Davidson diagonalization with overlap
     ethr =  4.53E-11,  avg # of iterations =  1.0

     total cpu time spent up to now is    18215.4 secs

     total energy              =    -469.16501308 Ry
     Harris-Foulkes estimate   =    -469.16501309 Ry
     estimated scf accuracy    <       0.00000001 Ry

     iteration # 30     ecut=    50.00 Ry     beta= 0.60
     Davidson diagonalization with overlap
     ethr =  2.80E-11,  avg # of iterations =  3.8

     total cpu time spent up to now is    18244.0 secs

     total energy              =    -469.16501309 Ry
     Harris-Foulkes estimate   =    -469.16501309 Ry
     estimated scf accuracy    <       0.00000002 Ry

     iteration # 31     ecut=    50.00 Ry     beta= 0.60
     Davidson diagonalization with overlap
     ethr =  2.80E-11,  avg # of iterations =  1.0

     total cpu time spent up to now is    18264.0 secs

     total energy              =    -469.16501309 Ry
     Harris-Foulkes estimate   =    -469.16501309 Ry
     estimated scf accuracy    <          4.2E-09 Ry

     iteration # 32     ecut=    50.00 Ry     beta= 0.60
     Davidson diagonalization with overlap
     ethr =  8.35E-12,  avg # of iterations =  3.5

     total cpu time spent up to now is    18291.1 secs

     total energy              =    -469.16501309 Ry
     Harris-Foulkes estimate   =    -469.16501309 Ry
     estimated scf accuracy    <          3.2E-10 Ry

     iteration # 33     ecut=    50.00 Ry     beta= 0.60
     Davidson diagonalization with overlap
     ethr =  6.48E-13,  avg # of iterations =  2.5

     total cpu time spent up to now is    18314.3 secs

     total energy              =    -469.16501309 Ry
     Harris-Foulkes estimate   =    -469.16501309 Ry
     estimated scf accuracy    <          2.0E-10 Ry

     iteration # 34     ecut=    50.00 Ry     beta= 0.60
     Davidson diagonalization with overlap
     ethr =  4.08E-13,  avg # of iterations =  1.4

     total cpu time spent up to now is    18334.9 secs

     total energy              =    -469.16501309 Ry
     Harris-Foulkes estimate   =    -469.16501309 Ry
     estimated scf accuracy    <          4.4E-11 Ry

     iteration # 35     ecut=    50.00 Ry     beta= 0.60
     Davidson diagonalization with overlap
     ethr =  1.00E-13,  avg # of iterations =  3.5

     total cpu time spent up to now is    18361.7 secs

     total energy              =    -469.16501309 Ry
     Harris-Foulkes estimate   =    -469.16501309 Ry
     estimated scf accuracy    <          1.2E-12 Ry

     iteration # 36     ecut=    50.00 Ry     beta= 0.60
     Davidson diagonalization with overlap
     ethr =  1.00E-13,  avg # of iterations =  1.0

     total cpu time spent up to now is    18382.1 secs

     End of self-consistent calculation

     Number of k-points >= 100: set verbosity='high' to print the bands.

     the Fermi energy is    15.6785 ev

!    total energy              =    -469.16501309 Ry
     Harris-Foulkes estimate   =    -469.16501309 Ry
     estimated scf accuracy    <          6.4E-13 Ry

     The total energy is the sum of the following terms:

     one-electron contribution =    -114.73948001 Ry
     hartree contribution      =      78.77329537 Ry
     xc contribution           =     -65.96714285 Ry
     ewald contribution        =    -367.23134471 Ry
     smearing contrib. (-TS)   =      -0.00034088 Ry

     convergence has been achieved in  36 iterations

     Forces acting on atoms (cartesian axes, Ry/au):

     atom    1 type  2   force =    -0.00001436   -0.00001436    0.00000319
     atom    2 type  2   force =     0.00001552    0.00001552    0.00000197
     atom    3 type  1   force =     0.00000199    0.00000199    0.00000991
     atom    4 type  1   force =    -0.00000314   -0.00000314   -0.00001507

     Total force =     0.000036     Total SCF correction =     0.000002


     Computing stress (Cartesian axis) and pressure

          total   stress  (Ry/bohr**3)                   (kbar)     P=   -0.84
  -0.00000559  -0.00000032   0.00000012         -0.82     -0.05      0.02
  -0.00000032  -0.00000559   0.00000012         -0.05     -0.82      0.02
   0.00000012   0.00000012  -0.00000602          0.02      0.02     -0.88

 
     init_run     :     26.99s CPU     27.78s WALL (       2 calls)
     electrons    :  17461.54s CPU  17870.73s WALL (      31 calls)
     update_pot   :     43.03s CPU     43.20s WALL (      29 calls)
     forces       :    113.65s CPU    116.63s WALL (      31 calls)
     stress       :    315.70s CPU    324.12s WALL (      31 calls)

     Called by init_run:
     wfcinit      :     24.55s CPU     25.22s WALL (       2 calls)
     potinit      :      0.71s CPU      0.71s WALL (       2 calls)
     hinit0       :      1.41s CPU      1.44s WALL (       2 calls)

     Called by electrons:
     c_bands      :  15084.23s CPU  15351.91s WALL (     518 calls)
     sum_band     :   2254.55s CPU   2336.68s WALL (     518 calls)
     v_of_rho     :     18.57s CPU     18.67s WALL (     539 calls)
     newd         :    107.76s CPU    151.79s WALL (     539 calls)
     mix_rho      :      2.32s CPU      2.35s WALL (     518 calls)

     Called by c_bands:
     init_us_2    :    326.14s CPU    328.94s WALL (  633600 calls)
     cegterg      :  13343.21s CPU  13581.87s WALL (  298368 calls)

     Called by sum_band:
     sum_band:bec :      6.06s CPU      6.09s WALL (  298368 calls)
     addusdens    :    125.51s CPU    164.39s WALL (     518 calls)

     Called by *egterg:
     h_psi        :   9010.64s CPU   9229.92s WALL ( 1225188 calls)
     s_psi        :    436.21s CPU    438.16s WALL ( 1225188 calls)
     g_psi        :    103.69s CPU    103.96s WALL (  925668 calls)
     cdiaghg      :   2124.51s CPU   2130.93s WALL ( 1201572 calls)

     Called by h_psi:
     h_psi:pot    :   8969.95s CPU   9186.68s WALL ( 1225188 calls)
     h_psi:calbec :    465.96s CPU    467.89s WALL ( 1225188 calls)
     vloc_psi     :   8057.14s CPU   8266.49s WALL ( 1225188 calls)
     add_vuspsi   :    442.09s CPU    445.71s WALL ( 1225188 calls)

     General routines
     calbec       :    674.05s CPU    676.49s WALL ( 1612836 calls)
     fft          :     12.79s CPU     13.06s WALL (    7790 calls)
     ffts         :      0.33s CPU      0.35s WALL (    1057 calls)
     fftw         :   8758.87s CPU   8979.05s WALL (55843534 calls)
     interpolate  :      0.96s CPU      0.98s WALL (     539 calls)
 
     Parallel routines
     fft_scatt_xy :   1651.55s CPU   1709.30s WALL (55852381 calls)
     fft_scatt_yz :   1977.88s CPU   2008.30s WALL (55852381 calls)
 
     PWSCF        :     4h59m CPU       59h 5m WALL

       6h
 
   This run was terminated on:  15:32:15   3Feb2020            

=------------------------------------------------------------------------------=
   JOB DONE.
=------------------------------------------------------------------------------=
