
     Program PWSCF v.6.3MaX starts on 24Feb2020 at 20: 7:55 

     This program is part of the open-source Quantum ESPRESSO suite
     for quantum simulation of materials; please cite
         "P. Giannozzi et al., J. Phys.:Condens. Matter 21 395502 (2009);
         "P. Giannozzi et al., J. Phys.:Condens. Matter 29 465901 (2017);
          URL http://www.quantum-espresso.org", 
     in publications or presentations arising from this work. More details at
     http://www.quantum-espresso.org/quote

     Parallel version (MPI), running on     4 processors

     MPI processes distributed on     1 nodes
     R & G space division:  proc/nbgrp/npool/nimage =       4
     Waiting for input...
     Reading input from standard input

     Current dimensions of program PWSCF are:
     Max number of different atomic species (ntypx) = 10
     Max number of k-points (npk) =  40000
     Max angular momentum in pseudopotentials (lmaxx) =  3
     Message from routine iosys:
     minimal I/O required, wf_collect reset to FALSE

     Subspace diagonalization in iterative solution of the eigenvalue problem:
     a serial algorithm will be used

 
     Parallelization info
     --------------------
     sticks:   dense  smooth     PW     G-vecs:    dense   smooth      PW
     Min         695     276     93                34663     8768    1704
     Max         696     277     94                34667     8770    1707
     Sum        2781    1105    375               138659    35075    6825
 


     bravais-lattice index     =            0
     lattice parameter (alat)  =       1.8897  a.u.
     unit-cell volume          =     733.3418 (a.u.)^3
     number of atoms/cell      =            5
     number of atomic types    =            2
     number of electrons       =        64.00
     number of Kohn-Sham states=           38
     kinetic-energy cutoff     =      50.0000  Ry
     charge density cutoff     =     500.0000  Ry
     convergence threshold     =      1.0E-10
     mixing beta               =       0.6000
     number of iterations used =            8  plain     mixing
     Exchange-correlation      = SLA PW PBE PBE ( 1  4  3  4 0 0)
     nstep                     =           50


     celldm(1)=   1.889726  celldm(2)=   0.000000  celldm(3)=   0.000000
     celldm(4)=   0.000000  celldm(5)=   0.000000  celldm(6)=   0.000000

     crystal axes: (cart. coord. in units of alat)
               a(1) = (  -1.758031  -5.274095  -1.758031 )  
               a(2) = (  -1.758031   5.274095   1.758031 )  
               a(3) = (   1.758031   1.758031  -5.274095 )  

     reciprocal axes: (cart. coord. in units 2 pi/alat)
               b(1) = ( -0.284409 -0.056882 -0.113764 )  
               b(2) = ( -0.284409  0.113764 -0.056882 )  
               b(3) = (  0.000000  0.056882 -0.170645 )  


     PseudoPot. # 1 for Nb read from file:
     ./Nb.pbe-nsp-van.UPF
     MD5 check sum: 0a22fc7fb0ba19a08ca5db297a5d2854
     Pseudo is Ultrasoft + core correction, Zval = 13.0
     Generated by new atomic code, or converted to UPF format
     Using radial grid of  887 points,  6 beta functions with: 
                l(1) =   0
                l(2) =   0
                l(3) =   1
                l(4) =   1
                l(5) =   2
                l(6) =   2
     Q(r) pseudized with  6 coefficients,  rinner =    1.000   1.000   1.000
                                                       1.000   1.000

     PseudoPot. # 2 for Ti read from file:
     ./Ti.pbe-sp-van_ak.UPF
     MD5 check sum: f98fea3e8887528921fefa5636a534ca
     Pseudo is Ultrasoft, Zval = 12.0
     Generated by new atomic code, or converted to UPF format
     Using radial grid of  851 points,  6 beta functions with: 
                l(1) =   0
                l(2) =   0
                l(3) =   1
                l(4) =   1
                l(5) =   2
                l(6) =   2
     Q(r) pseudized with  8 coefficients,  rinner =    1.000   1.000   1.000
                                                       1.000   1.000

     atomic species   valence    mass     pseudopotential
        Nb            13.00    92.90638     Nb( 1.00)
        Ti            12.00    47.86700     Ti( 1.00)

      8 Sym. Ops., with inversion, found



   Cartesian axes

     site n.     atom                  positions (alat units)
         1           Ti  tau(   1) = (  -1.7580316   1.7580316  -5.2740949  )
         2           Nb  tau(   2) = (  -1.7580316   1.7580316  -1.7580316  )
         3           Nb  tau(   3) = (  -1.7580316  -1.7580316  -1.7580316  )
         4           Nb  tau(   4) = (   0.0000000   3.5160633  -3.5160633  )
         5           Nb  tau(   5) = (   0.0000000   0.0000000  -3.5160633  )

     number of k points=   242  Marzari-Vanderbilt smearing, width (Ry)=  0.0200

     Number of k-points >= 100: set verbosity='high' to print them.

     Dense  grid:   138659 G-vectors     FFT dimensions: (  80,  80,  80)

     Smooth grid:    35075 G-vectors     FFT dimensions: (  50,  50,  50)

     Estimated max dynamical RAM per process >     288.20 MB

     Estimated total dynamical RAM >       1.13 GB

     Initial potential from superposition of free atoms

     starting charge   62.98902, renormalised to   64.00000
     Starting wfcs are   62 randomized atomic wfcs

     total cpu time spent up to now is       17.9 secs

     Self-consistent Calculation

     iteration #  1     ecut=    50.00 Ry     beta= 0.60
     Davidson diagonalization with overlap
     ethr =  1.00E-02,  avg # of iterations =  2.0

     total cpu time spent up to now is       48.2 secs

     total energy              =    -564.99975703 Ry
     Harris-Foulkes estimate   =    -590.74796613 Ry
     estimated scf accuracy    <      32.12370903 Ry

     iteration #  2     ecut=    50.00 Ry     beta= 0.60
     Davidson diagonalization with overlap
     ethr =  1.00E-02,  avg # of iterations =  6.0

     total cpu time spent up to now is      100.2 secs

     total energy              =    -573.08392830 Ry
     Harris-Foulkes estimate   =    -624.84432295 Ry
     estimated scf accuracy    <     161.03022722 Ry

     iteration #  3     ecut=    50.00 Ry     beta= 0.60
     Davidson diagonalization with overlap
     ethr =  1.00E-02,  avg # of iterations =  5.0

     total cpu time spent up to now is      145.4 secs

     total energy              =    -589.57099065 Ry
     Harris-Foulkes estimate   =    -590.77447612 Ry
     estimated scf accuracy    <       7.87968635 Ry

     iteration #  4     ecut=    50.00 Ry     beta= 0.60
     Davidson diagonalization with overlap
     ethr =  1.00E-02,  avg # of iterations =  1.0

     total cpu time spent up to now is      170.3 secs

     total energy              =    -588.28620057 Ry
     Harris-Foulkes estimate   =    -589.63601102 Ry
     estimated scf accuracy    <       5.40635488 Ry

     iteration #  5     ecut=    50.00 Ry     beta= 0.60
     Davidson diagonalization with overlap
     ethr =  8.45E-03,  avg # of iterations =  1.8

     total cpu time spent up to now is      196.5 secs

     total energy              =    -588.46142153 Ry
     Harris-Foulkes estimate   =    -588.47186300 Ry
     estimated scf accuracy    <       1.88389545 Ry

     iteration #  6     ecut=    50.00 Ry     beta= 0.60
     Davidson diagonalization with overlap
     ethr =  2.94E-03,  avg # of iterations =  1.2

     total cpu time spent up to now is      221.8 secs

     total energy              =    -588.17758478 Ry
     Harris-Foulkes estimate   =    -588.48917272 Ry
     estimated scf accuracy    <       1.84906626 Ry

     iteration #  7     ecut=    50.00 Ry     beta= 0.60
     Davidson diagonalization with overlap
     ethr =  2.89E-03,  avg # of iterations =  2.4

     total cpu time spent up to now is      248.8 secs

     total energy              =    -587.95489422 Ry
     Harris-Foulkes estimate   =    -588.24379884 Ry
     estimated scf accuracy    <       0.65111762 Ry

     iteration #  8     ecut=    50.00 Ry     beta= 0.60
     Davidson diagonalization with overlap
     ethr =  1.02E-03,  avg # of iterations =  4.4

     total cpu time spent up to now is      291.0 secs

     total energy              =    -587.46259947 Ry
     Harris-Foulkes estimate   =    -588.98460475 Ry
     estimated scf accuracy    <      17.12729090 Ry

     iteration #  9     ecut=    50.00 Ry     beta= 0.60
     Davidson diagonalization with overlap
     ethr =  1.02E-03,  avg # of iterations =  5.8

     total cpu time spent up to now is      328.8 secs

     total energy              =    -588.29461816 Ry
     Harris-Foulkes estimate   =    -588.27267454 Ry
     estimated scf accuracy    <       0.03452189 Ry

     iteration # 10     ecut=    50.00 Ry     beta= 0.60
     Davidson diagonalization with overlap
     ethr =  5.39E-05,  avg # of iterations =  7.5

     total cpu time spent up to now is      376.3 secs

     total energy              =    -588.27470298 Ry
     Harris-Foulkes estimate   =    -588.33791582 Ry
     estimated scf accuracy    <       0.66983125 Ry

     iteration # 11     ecut=    50.00 Ry     beta= 0.60
     Davidson diagonalization with overlap
     ethr =  5.39E-05,  avg # of iterations =  4.9

     total cpu time spent up to now is      413.4 secs

     total energy              =    -588.28025627 Ry
     Harris-Foulkes estimate   =    -588.28574023 Ry
     estimated scf accuracy    <       0.21277620 Ry

     iteration # 12     ecut=    50.00 Ry     beta= 0.60
     Davidson diagonalization with overlap
     ethr =  5.39E-05,  avg # of iterations =  1.0

     total cpu time spent up to now is      438.2 secs

     total energy              =    -588.27478586 Ry
     Harris-Foulkes estimate   =    -588.28046902 Ry
     estimated scf accuracy    <       0.17683195 Ry

     iteration # 13     ecut=    50.00 Ry     beta= 0.60
     Davidson diagonalization with overlap
     ethr =  5.39E-05,  avg # of iterations =  2.1

     total cpu time spent up to now is      464.3 secs

     total energy              =    -588.26970175 Ry
     Harris-Foulkes estimate   =    -588.27558421 Ry
     estimated scf accuracy    <       0.10922172 Ry

     iteration # 14     ecut=    50.00 Ry     beta= 0.60
     Davidson diagonalization with overlap
     ethr =  5.39E-05,  avg # of iterations =  1.1

     total cpu time spent up to now is      489.2 secs

     total energy              =    -588.26113501 Ry
     Harris-Foulkes estimate   =    -588.27031001 Ry
     estimated scf accuracy    <       0.06561675 Ry

     iteration # 15     ecut=    50.00 Ry     beta= 0.60
     Davidson diagonalization with overlap
     ethr =  5.39E-05,  avg # of iterations =  5.6

     total cpu time spent up to now is      526.1 secs

     total energy              =    -588.26655035 Ry
     Harris-Foulkes estimate   =    -588.26721450 Ry
     estimated scf accuracy    <       0.00333771 Ry

     iteration # 16     ecut=    50.00 Ry     beta= 0.60
     Davidson diagonalization with overlap
     ethr =  5.22E-06,  avg # of iterations =  6.8

     total cpu time spent up to now is      565.2 secs

     total energy              =    -588.26754634 Ry
     Harris-Foulkes estimate   =    -588.26776643 Ry
     estimated scf accuracy    <       0.00854474 Ry

     iteration # 17     ecut=    50.00 Ry     beta= 0.60
     Davidson diagonalization with overlap
     ethr =  5.22E-06,  avg # of iterations =  1.0

     total cpu time spent up to now is      590.0 secs

     total energy              =    -588.26682826 Ry
     Harris-Foulkes estimate   =    -588.26755795 Ry
     estimated scf accuracy    <       0.00746434 Ry

     iteration # 18     ecut=    50.00 Ry     beta= 0.60
     Davidson diagonalization with overlap
     ethr =  5.22E-06,  avg # of iterations =  3.0

     total cpu time spent up to now is      617.6 secs

     total energy              =    -588.26677416 Ry
     Harris-Foulkes estimate   =    -588.26703325 Ry
     estimated scf accuracy    <       0.00297764 Ry

     iteration # 19     ecut=    50.00 Ry     beta= 0.60
     Davidson diagonalization with overlap
     ethr =  4.65E-06,  avg # of iterations =  3.0

     total cpu time spent up to now is      645.0 secs

     total energy              =    -588.26690031 Ry
     Harris-Foulkes estimate   =    -588.26691943 Ry
     estimated scf accuracy    <       0.00024970 Ry

     iteration # 20     ecut=    50.00 Ry     beta= 0.60
     Davidson diagonalization with overlap
     ethr =  3.90E-07,  avg # of iterations =  5.7

     total cpu time spent up to now is      682.5 secs

     total energy              =    -588.26696185 Ry
     Harris-Foulkes estimate   =    -588.26696294 Ry
     estimated scf accuracy    <       0.00002182 Ry

     iteration # 21     ecut=    50.00 Ry     beta= 0.60
     Davidson diagonalization with overlap
     ethr =  3.41E-08,  avg # of iterations =  2.0

     total cpu time spent up to now is      708.8 secs

     total energy              =    -588.26696193 Ry
     Harris-Foulkes estimate   =    -588.26696251 Ry
     estimated scf accuracy    <       0.00001383 Ry

     iteration # 22     ecut=    50.00 Ry     beta= 0.60
     Davidson diagonalization with overlap
     ethr =  2.16E-08,  avg # of iterations =  1.1

     total cpu time spent up to now is      733.6 secs

     total energy              =    -588.26696173 Ry
     Harris-Foulkes estimate   =    -588.26696212 Ry
     estimated scf accuracy    <       0.00001238 Ry

     iteration # 23     ecut=    50.00 Ry     beta= 0.60
     Davidson diagonalization with overlap
     ethr =  1.93E-08,  avg # of iterations =  1.0

     total cpu time spent up to now is      758.4 secs

     total energy              =    -588.26696144 Ry
     Harris-Foulkes estimate   =    -588.26696184 Ry
     estimated scf accuracy    <       0.00000767 Ry

     iteration # 24     ecut=    50.00 Ry     beta= 0.60
     Davidson diagonalization with overlap
     ethr =  1.20E-08,  avg # of iterations =  1.9

     total cpu time spent up to now is      784.2 secs

     total energy              =    -588.26696127 Ry
     Harris-Foulkes estimate   =    -588.26696158 Ry
     estimated scf accuracy    <       0.00000253 Ry

     iteration # 25     ecut=    50.00 Ry     beta= 0.60
     Davidson diagonalization with overlap
     ethr =  3.95E-09,  avg # of iterations =  3.9

     total cpu time spent up to now is      815.4 secs

     total energy              =    -588.26696164 Ry
     Harris-Foulkes estimate   =    -588.26696164 Ry
     estimated scf accuracy    <       0.00000034 Ry

     iteration # 26     ecut=    50.00 Ry     beta= 0.60
     Davidson diagonalization with overlap
     ethr =  5.38E-10,  avg # of iterations =  1.8

     total cpu time spent up to now is      841.0 secs

     total energy              =    -588.26696163 Ry
     Harris-Foulkes estimate   =    -588.26696164 Ry
     estimated scf accuracy    <       0.00000031 Ry

     iteration # 27     ecut=    50.00 Ry     beta= 0.60
     Davidson diagonalization with overlap
     ethr =  4.77E-10,  avg # of iterations =  1.0

     total cpu time spent up to now is      865.8 secs

     total energy              =    -588.26696162 Ry
     Harris-Foulkes estimate   =    -588.26696163 Ry
     estimated scf accuracy    <       0.00000012 Ry

     iteration # 28     ecut=    50.00 Ry     beta= 0.60
     Davidson diagonalization with overlap
     ethr =  1.83E-10,  avg # of iterations =  3.0

     total cpu time spent up to now is      893.2 secs

     total energy              =    -588.26696162 Ry
     Harris-Foulkes estimate   =    -588.26696163 Ry
     estimated scf accuracy    <       0.00000001 Ry

     iteration # 29     ecut=    50.00 Ry     beta= 0.60
     Davidson diagonalization with overlap
     ethr =  2.10E-11,  avg # of iterations =  4.0

     total cpu time spent up to now is      925.0 secs

     End of self-consistent calculation

     Number of k-points >= 100: set verbosity='high' to print the bands.

     the Fermi energy is    13.5056 ev

!    total energy              =    -588.26696163 Ry
     Harris-Foulkes estimate   =    -588.26696163 Ry
     estimated scf accuracy    <          2.2E-11 Ry

     The total energy is the sum of the following terms:

     one-electron contribution =    -148.63862659 Ry
     hartree contribution      =      96.61407122 Ry
     xc contribution           =     -87.37284790 Ry
     ewald contribution        =    -448.86988960 Ry
     smearing contrib. (-TS)   =       0.00033124 Ry

     convergence has been achieved in  29 iterations

     Forces acting on atoms (cartesian axes, Ry/au):

     atom    1 type  2   force =     0.00000000    0.00000000    0.00000000
     atom    2 type  1   force =     0.00000000    0.01270619   -0.01483836
     atom    3 type  1   force =     0.00000000   -0.01483836   -0.01270619
     atom    4 type  1   force =     0.00000000    0.01483836    0.01270619
     atom    5 type  1   force =     0.00000000   -0.01270619    0.01483836

     Total force =     0.039070     Total SCF correction =     0.000014


     Computing stress (Cartesian axis) and pressure

          total   stress  (Ry/bohr**3)                   (kbar)     P= -214.39
  -0.00145075   0.00000000  -0.00000000       -213.41      0.00     -0.00
   0.00000000  -0.00146069   0.00000000          0.00   -214.87      0.00
   0.00000000   0.00000000  -0.00146069          0.00      0.00   -214.87


     BFGS Geometry Optimization

     number of scf cycles    =   1
     number of bfgs steps    =   0

     enthalpy new            =    -588.2669616269 Ry

     new trust radius        =       0.1977792730 bohr
     new conv_thr            =            1.0E-10 Ry

     new unit-cell volume =    656.07020 a.u.^3 (    97.21957 Ang^3 )
     density =      7.16506 g/cm^3

CELL_PARAMETERS (alat=  1.88972599)
  -1.694269828  -5.081499299  -1.693833100
  -1.694269828   5.081499299   1.693833100
   1.694269828   1.693833100  -5.081499299

ATOMIC_POSITIONS (angstrom)
Ti      -1.694269828   1.693833100  -5.081499299
Nb      -1.694269828   1.700311393  -1.701398482
Nb      -1.694269828  -1.701398482  -1.700311393
Nb       0.000000000   3.395231582  -3.381187906
Nb       0.000000000  -0.006478293  -3.380100817


     NEW-OLD atomic charge density approx. for the potential
     extrapolated charge   56.58118, renormalised to   64.00000

     total cpu time spent up to now is      938.6 secs

     Self-consistent Calculation

     iteration #  1     ecut=    50.00 Ry     beta= 0.60
     Davidson diagonalization with overlap
     c_bands:  1 eigenvalues not converged
     c_bands:  1 eigenvalues not converged
     c_bands:  1 eigenvalues not converged
     c_bands:  1 eigenvalues not converged
     c_bands:  1 eigenvalues not converged
     c_bands:  1 eigenvalues not converged
     c_bands:  1 eigenvalues not converged
     c_bands:  1 eigenvalues not converged
     c_bands:  1 eigenvalues not converged
     c_bands:  1 eigenvalues not converged
     c_bands:  1 eigenvalues not converged
     c_bands:  1 eigenvalues not converged
     c_bands:  1 eigenvalues not converged
     c_bands:  1 eigenvalues not converged
     c_bands:  1 eigenvalues not converged
     c_bands:  1 eigenvalues not converged
     c_bands:  1 eigenvalues not converged
     c_bands:  1 eigenvalues not converged
     c_bands:  1 eigenvalues not converged
     c_bands:  1 eigenvalues not converged
     c_bands:  1 eigenvalues not converged
     c_bands:  2 eigenvalues not converged
     c_bands:  1 eigenvalues not converged
     c_bands:  1 eigenvalues not converged
     c_bands:  1 eigenvalues not converged
     c_bands:  1 eigenvalues not converged
     c_bands:  1 eigenvalues not converged
     c_bands:  1 eigenvalues not converged
     c_bands:  1 eigenvalues not converged
     c_bands:  1 eigenvalues not converged
     c_bands:  1 eigenvalues not converged
     c_bands:  1 eigenvalues not converged
     c_bands:  1 eigenvalues not converged
     c_bands:  1 eigenvalues not converged
     c_bands:  1 eigenvalues not converged
     c_bands:  1 eigenvalues not converged
     c_bands:  1 eigenvalues not converged
     c_bands:  1 eigenvalues not converged
     c_bands:  1 eigenvalues not converged
     c_bands:  1 eigenvalues not converged
     c_bands:  1 eigenvalues not converged
     ethr =  1.00E-06,  avg # of iterations = 16.0

     total cpu time spent up to now is     1036.8 secs

     total energy              =    -566.50634261 Ry
     Harris-Foulkes estimate   =    -599.56192574 Ry
     estimated scf accuracy    <      24.26895551 Ry

     iteration #  2     ecut=    50.00 Ry     beta= 0.60
     Davidson diagonalization with overlap
     ethr =  1.00E-02,  avg # of iterations =  6.3

     total cpu time spent up to now is     1088.3 secs

     total energy              =    -579.85790479 Ry
     Harris-Foulkes estimate   =    -617.42831495 Ry
     estimated scf accuracy    <     117.26579494 Ry

     iteration #  3     ecut=    50.00 Ry     beta= 0.60
     Davidson diagonalization with overlap
     ethr =  1.00E-02,  avg # of iterations =  5.0

     total cpu time spent up to now is     1131.6 secs

     total energy              =    -589.97761516 Ry
     Harris-Foulkes estimate   =    -591.74221197 Ry
     estimated scf accuracy    <       8.16064880 Ry

     iteration #  4     ecut=    50.00 Ry     beta= 0.60
     Davidson diagonalization with overlap
     ethr =  1.00E-02,  avg # of iterations =  1.0

     total cpu time spent up to now is     1156.8 secs

     total energy              =    -588.81968713 Ry
     Harris-Foulkes estimate   =    -590.15679069 Ry
     estimated scf accuracy    <       5.64096800 Ry

     iteration #  5     ecut=    50.00 Ry     beta= 0.60
     Davidson diagonalization with overlap
     ethr =  8.81E-03,  avg # of iterations =  2.0

     total cpu time spent up to now is     1183.3 secs

     total energy              =    -588.73181048 Ry
     Harris-Foulkes estimate   =    -588.97339429 Ry
     estimated scf accuracy    <       2.78067667 Ry

     iteration #  6     ecut=    50.00 Ry     beta= 0.60
     Davidson diagonalization with overlap
     ethr =  4.34E-03,  avg # of iterations =  1.0

     total cpu time spent up to now is     1208.5 secs

     total energy              =    -588.71193718 Ry
     Harris-Foulkes estimate   =    -588.75328726 Ry
     estimated scf accuracy    <       2.17301747 Ry

     iteration #  7     ecut=    50.00 Ry     beta= 0.60
     Davidson diagonalization with overlap
     ethr =  3.40E-03,  avg # of iterations =  1.0

     total cpu time spent up to now is     1233.3 secs

     total energy              =    -588.33840307 Ry
     Harris-Foulkes estimate   =    -588.72299138 Ry
     estimated scf accuracy    <       2.00294348 Ry

     iteration #  8     ecut=    50.00 Ry     beta= 0.60
     Davidson diagonalization with overlap
     ethr =  3.13E-03,  avg # of iterations =  1.7

     total cpu time spent up to now is     1259.1 secs

     total energy              =    -588.26384560 Ry
     Harris-Foulkes estimate   =    -588.38571137 Ry
     estimated scf accuracy    <       0.93098809 Ry

     iteration #  9     ecut=    50.00 Ry     beta= 0.60
     Davidson diagonalization with overlap
     ethr =  1.45E-03,  avg # of iterations =  4.6

     total cpu time spent up to now is     1293.0 secs

     total energy              =    -588.38479579 Ry
     Harris-Foulkes estimate   =    -588.38279511 Ry
     estimated scf accuracy    <       0.08135802 Ry

     iteration # 10     ecut=    50.00 Ry     beta= 0.60
     Davidson diagonalization with overlap
     ethr =  1.27E-04,  avg # of iterations =  3.9

     total cpu time spent up to now is     1322.8 secs

     total energy              =    -588.32515225 Ry
     Harris-Foulkes estimate   =    -588.38964053 Ry
     estimated scf accuracy    <       0.09227822 Ry

     iteration # 11     ecut=    50.00 Ry     beta= 0.60
     Davidson diagonalization with overlap
     ethr =  1.27E-04,  avg # of iterations =  5.7

     total cpu time spent up to now is     1372.9 secs

     total energy              =    -588.33007872 Ry
     Harris-Foulkes estimate   =    -588.78811107 Ry
     estimated scf accuracy    <       9.76045658 Ry

     iteration # 12     ecut=    50.00 Ry     beta= 0.60
     Davidson diagonalization with overlap
     ethr =  1.27E-04,  avg # of iterations =  5.3

     total cpu time spent up to now is     1414.6 secs

     total energy              =    -588.43567941 Ry
     Harris-Foulkes estimate   =    -588.45273782 Ry
     estimated scf accuracy    <       2.08827822 Ry

     iteration # 13     ecut=    50.00 Ry     beta= 0.60
     Davidson diagonalization with overlap
     ethr =  1.27E-04,  avg # of iterations =  1.0

     total cpu time spent up to now is     1439.8 secs

     total energy              =    -588.16562240 Ry
     Harris-Foulkes estimate   =    -588.43670838 Ry
     estimated scf accuracy    <       1.76120766 Ry

     iteration # 14     ecut=    50.00 Ry     beta= 0.60
     Davidson diagonalization with overlap
     ethr =  1.27E-04,  avg # of iterations =  7.4

     total cpu time spent up to now is     1488.0 secs

     total energy              =    -588.39420131 Ry
     Harris-Foulkes estimate   =    -588.38685125 Ry
     estimated scf accuracy    <       0.26333480 Ry

     iteration # 15     ecut=    50.00 Ry     beta= 0.60
     Davidson diagonalization with overlap
     ethr =  1.27E-04,  avg # of iterations =  1.0

     total cpu time spent up to now is     1513.2 secs

     total energy              =    -588.34108884 Ry
     Harris-Foulkes estimate   =    -588.39443368 Ry
     estimated scf accuracy    <       0.30439312 Ry

     iteration # 16     ecut=    50.00 Ry     beta= 0.60
     Davidson diagonalization with overlap
     ethr =  1.27E-04,  avg # of iterations =  5.3

     total cpu time spent up to now is     1547.8 secs

     total energy              =    -588.36029520 Ry
     Harris-Foulkes estimate   =    -588.35872115 Ry
     estimated scf accuracy    <       0.00773780 Ry

     iteration # 17     ecut=    50.00 Ry     beta= 0.60
     Davidson diagonalization with overlap
     ethr =  1.21E-05,  avg # of iterations =  5.8

     total cpu time spent up to now is     1583.3 secs

     total energy              =    -588.35489638 Ry
     Harris-Foulkes estimate   =    -588.36187052 Ry
     estimated scf accuracy    <       0.04176567 Ry

     iteration # 18     ecut=    50.00 Ry     beta= 0.60
     Davidson diagonalization with overlap
     c_bands:  5 eigenvalues not converged
     ethr =  1.21E-05,  avg # of iterations =  6.4

     total cpu time spent up to now is     1623.7 secs

     total energy              =    -588.35729204 Ry
     Harris-Foulkes estimate   =    -588.35740124 Ry
     estimated scf accuracy    <       0.00100532 Ry

     iteration # 19     ecut=    50.00 Ry     beta= 0.60
     Davidson diagonalization with overlap
     ethr =  1.57E-06,  avg # of iterations =  1.8

     total cpu time spent up to now is     1649.8 secs

     total energy              =    -588.35717780 Ry
     Harris-Foulkes estimate   =    -588.35730177 Ry
     estimated scf accuracy    <       0.00069541 Ry

     iteration # 20     ecut=    50.00 Ry     beta= 0.60
     Davidson diagonalization with overlap
     ethr =  1.09E-06,  avg # of iterations =  1.2

     total cpu time spent up to now is     1675.2 secs

     total energy              =    -588.35713431 Ry
     Harris-Foulkes estimate   =    -588.35719913 Ry
     estimated scf accuracy    <       0.00043409 Ry

     iteration # 21     ecut=    50.00 Ry     beta= 0.60
     Davidson diagonalization with overlap
     ethr =  6.78E-07,  avg # of iterations =  2.2

     total cpu time spent up to now is     1702.7 secs

     total energy              =    -588.35711598 Ry
     Harris-Foulkes estimate   =    -588.35716020 Ry
     estimated scf accuracy    <       0.00032552 Ry

     iteration # 22     ecut=    50.00 Ry     beta= 0.60
     Davidson diagonalization with overlap
     ethr =  5.09E-07,  avg # of iterations =  2.9

     total cpu time spent up to now is     1730.2 secs

     total energy              =    -588.35713766 Ry
     Harris-Foulkes estimate   =    -588.35713880 Ry
     estimated scf accuracy    <       0.00000305 Ry

     iteration # 23     ecut=    50.00 Ry     beta= 0.60
     Davidson diagonalization with overlap
     ethr =  4.77E-09,  avg # of iterations =  5.3

     total cpu time spent up to now is     1772.9 secs

     total energy              =    -588.35714391 Ry
     Harris-Foulkes estimate   =    -588.35715046 Ry
     estimated scf accuracy    <       0.00007164 Ry

     iteration # 24     ecut=    50.00 Ry     beta= 0.60
     Davidson diagonalization with overlap
     ethr =  4.77E-09,  avg # of iterations =  4.3

     total cpu time spent up to now is     1809.0 secs

     total energy              =    -588.35714539 Ry
     Harris-Foulkes estimate   =    -588.35714592 Ry
     estimated scf accuracy    <       0.00000804 Ry

     iteration # 25     ecut=    50.00 Ry     beta= 0.60
     Davidson diagonalization with overlap
     ethr =  4.77E-09,  avg # of iterations =  1.0

     total cpu time spent up to now is     1834.2 secs

     total energy              =    -588.35714507 Ry
     Harris-Foulkes estimate   =    -588.35714546 Ry
     estimated scf accuracy    <       0.00000435 Ry

     iteration # 26     ecut=    50.00 Ry     beta= 0.60
     Davidson diagonalization with overlap
     ethr =  4.77E-09,  avg # of iterations =  3.2

     total cpu time spent up to now is     1862.9 secs

     total energy              =    -588.35714529 Ry
     Harris-Foulkes estimate   =    -588.35714528 Ry
     estimated scf accuracy    <       0.00000021 Ry

     iteration # 27     ecut=    50.00 Ry     beta= 0.60
     Davidson diagonalization with overlap
     ethr =  3.24E-10,  avg # of iterations =  3.1

     total cpu time spent up to now is     1892.4 secs

     total energy              =    -588.35714527 Ry
     Harris-Foulkes estimate   =    -588.35714530 Ry
     estimated scf accuracy    <       0.00000023 Ry

     iteration # 28     ecut=    50.00 Ry     beta= 0.60
     Davidson diagonalization with overlap
     ethr =  3.24E-10,  avg # of iterations =  1.9

     total cpu time spent up to now is     1918.5 secs

     total energy              =    -588.35714528 Ry
     Harris-Foulkes estimate   =    -588.35714528 Ry
     estimated scf accuracy    <       0.00000002 Ry

     iteration # 29     ecut=    50.00 Ry     beta= 0.60
     Davidson diagonalization with overlap
     ethr =  3.15E-11,  avg # of iterations =  4.4

     total cpu time spent up to now is     1954.4 secs

     total energy              =    -588.35714529 Ry
     Harris-Foulkes estimate   =    -588.35714529 Ry
     estimated scf accuracy    <          7.5E-09 Ry

     iteration # 30     ecut=    50.00 Ry     beta= 0.60
     Davidson diagonalization with overlap
     ethr =  1.18E-11,  avg # of iterations =  1.0

     total cpu time spent up to now is     1979.5 secs

     total energy              =    -588.35714529 Ry
     Harris-Foulkes estimate   =    -588.35714529 Ry
     estimated scf accuracy    <          3.0E-09 Ry

     iteration # 31     ecut=    50.00 Ry     beta= 0.60
     Davidson diagonalization with overlap
     ethr =  4.75E-12,  avg # of iterations =  3.1

     total cpu time spent up to now is     2008.8 secs

     End of self-consistent calculation

     Number of k-points >= 100: set verbosity='high' to print the bands.

     the Fermi energy is    15.4458 ev

!    total energy              =    -588.35714529 Ry
     Harris-Foulkes estimate   =    -588.35714529 Ry
     estimated scf accuracy    <          8.9E-11 Ry

     The total energy is the sum of the following terms:

     one-electron contribution =    -124.18388358 Ry
     hartree contribution      =      89.49458361 Ry
     xc contribution           =     -87.87777491 Ry
     ewald contribution        =    -465.78974389 Ry
     smearing contrib. (-TS)   =      -0.00032651 Ry

     convergence has been achieved in  31 iterations

     Forces acting on atoms (cartesian axes, Ry/au):

     atom    1 type  2   force =     0.00000000    0.00000000   -0.00000000
     atom    2 type  1   force =     0.00000000    0.00808262   -0.01228351
     atom    3 type  1   force =     0.00000000   -0.01228351   -0.00808262
     atom    4 type  1   force =     0.00000000    0.01228351    0.00808262
     atom    5 type  1   force =     0.00000000   -0.00808262    0.01228351

     Total force =     0.029408     Total SCF correction =     0.000017


     Computing stress (Cartesian axis) and pressure

          total   stress  (Ry/bohr**3)                   (kbar)     P= -113.53
  -0.00076432   0.00000000  -0.00000000       -112.44      0.00     -0.00
  -0.00000000  -0.00077551  -0.00000000         -0.00   -114.08     -0.00
  -0.00000000   0.00000000  -0.00077551         -0.00      0.00   -114.08


     number of scf cycles    =   2
     number of bfgs steps    =   1

     enthalpy old            =    -588.2669616269 Ry
     enthalpy new            =    -588.3571452861 Ry

     CASE: enthalpy_new < enthalpy_old

     new trust radius        =       0.1899849247 bohr
     new conv_thr            =            1.0E-10 Ry

     new unit-cell volume =    586.08637 a.u.^3 (    86.84904 Ang^3 )
     density =      8.02063 g/cm^3

CELL_PARAMETERS (alat=  1.88972599)
  -1.632372226  -4.893045080  -1.631015027
  -1.632372226   4.893045080   1.631015027
   1.632372226   1.631015027  -4.893045080

ATOMIC_POSITIONS (angstrom)
Ti      -1.632372226   1.631015027  -4.893045080
Nb      -1.632372226   1.644837036  -1.649818905
Nb      -1.632372226  -1.649818905  -1.644837036
Nb       0.000000000   3.280833932  -3.248208043
Nb       0.000000000  -0.013822010  -3.243226174


     NEW-OLD atomic charge density approx. for the potential
     extrapolated charge   56.47856, renormalised to   64.00000

     total cpu time spent up to now is     2022.9 secs

     Self-consistent Calculation

     iteration #  1     ecut=    50.00 Ry     beta= 0.60
     Davidson diagonalization with overlap
     c_bands:  1 eigenvalues not converged
     c_bands:  1 eigenvalues not converged
     c_bands:  1 eigenvalues not converged
     c_bands:  1 eigenvalues not converged
     c_bands:  1 eigenvalues not converged
     c_bands:  1 eigenvalues not converged
     c_bands:  1 eigenvalues not converged
     c_bands:  1 eigenvalues not converged
     c_bands:  1 eigenvalues not converged
     c_bands:  1 eigenvalues not converged
     c_bands:  1 eigenvalues not converged
     c_bands:  1 eigenvalues not converged
     c_bands:  1 eigenvalues not converged
     c_bands:  1 eigenvalues not converged
     c_bands:  1 eigenvalues not converged
     c_bands:  2 eigenvalues not converged
     c_bands:  1 eigenvalues not converged
     c_bands:  1 eigenvalues not converged
     c_bands:  1 eigenvalues not converged
     c_bands:  1 eigenvalues not converged
     c_bands:  1 eigenvalues not converged
     c_bands:  2 eigenvalues not converged
     c_bands:  1 eigenvalues not converged
     c_bands:  1 eigenvalues not converged
     c_bands:  1 eigenvalues not converged
     c_bands:  1 eigenvalues not converged
     c_bands:  1 eigenvalues not converged
     c_bands:  1 eigenvalues not converged
     c_bands:  1 eigenvalues not converged
     c_bands:  2 eigenvalues not converged
     c_bands:  1 eigenvalues not converged
     c_bands:  1 eigenvalues not converged
     c_bands:  2 eigenvalues not converged
     c_bands:  1 eigenvalues not converged
     c_bands:  1 eigenvalues not converged
     c_bands:  1 eigenvalues not converged
     c_bands:  1 eigenvalues not converged
     c_bands:  1 eigenvalues not converged
     c_bands:  1 eigenvalues not converged
     c_bands:  1 eigenvalues not converged
     c_bands:  1 eigenvalues not converged
     c_bands:  1 eigenvalues not converged
     c_bands:  1 eigenvalues not converged
     c_bands:  1 eigenvalues not converged
     c_bands:  1 eigenvalues not converged
     c_bands:  1 eigenvalues not converged
     c_bands:  1 eigenvalues not converged
     c_bands:  1 eigenvalues not converged
     c_bands:  1 eigenvalues not converged
     c_bands:  2 eigenvalues not converged
     c_bands:  1 eigenvalues not converged
     c_bands:  1 eigenvalues not converged
     ethr =  1.00E-06,  avg # of iterations = 15.8

     total cpu time spent up to now is     2118.3 secs

     total energy              =    -571.38568109 Ry
     Harris-Foulkes estimate   =    -597.66601004 Ry
     estimated scf accuracy    <      18.59649275 Ry

     iteration #  2     ecut=    50.00 Ry     beta= 0.60
     Davidson diagonalization with overlap
     ethr =  1.00E-02,  avg # of iterations =  6.3

     total cpu time spent up to now is     2168.9 secs

     total energy              =    -580.21859256 Ry
     Harris-Foulkes estimate   =    -610.24511772 Ry
     estimated scf accuracy    <      95.97255968 Ry

     iteration #  3     ecut=    50.00 Ry     beta= 0.60
     Davidson diagonalization with overlap
     ethr =  1.00E-02,  avg # of iterations =  4.5

     total cpu time spent up to now is     2209.7 secs

     total energy              =    -589.55274599 Ry
     Harris-Foulkes estimate   =    -590.96164245 Ry
     estimated scf accuracy    <       6.53391540 Ry

     iteration #  4     ecut=    50.00 Ry     beta= 0.60
     Davidson diagonalization with overlap
     ethr =  1.00E-02,  avg # of iterations =  1.0

     total cpu time spent up to now is     2234.8 secs

     total energy              =    -588.64672857 Ry
     Harris-Foulkes estimate   =    -589.70230217 Ry
     estimated scf accuracy    <       4.56050114 Ry

     iteration #  5     ecut=    50.00 Ry     beta= 0.60
     Davidson diagonalization with overlap
     ethr =  7.13E-03,  avg # of iterations =  2.0

     total cpu time spent up to now is     2261.2 secs

     total energy              =    -588.62299364 Ry
     Harris-Foulkes estimate   =    -588.77986672 Ry
     estimated scf accuracy    <       2.11142567 Ry

     iteration #  6     ecut=    50.00 Ry     beta= 0.60
     Davidson diagonalization with overlap
     ethr =  3.30E-03,  avg # of iterations =  1.0

     total cpu time spent up to now is     2286.3 secs

     total energy              =    -588.63152499 Ry
     Harris-Foulkes estimate   =    -588.64330707 Ry
     estimated scf accuracy    <       1.65650854 Ry

     iteration #  7     ecut=    50.00 Ry     beta= 0.60
     Davidson diagonalization with overlap
     ethr =  2.59E-03,  avg # of iterations =  1.0

     total cpu time spent up to now is     2311.1 secs

     total energy              =    -588.45300106 Ry
     Harris-Foulkes estimate   =    -588.64028931 Ry
     estimated scf accuracy    <       1.54550472 Ry

     iteration #  8     ecut=    50.00 Ry     beta= 0.60
     Davidson diagonalization with overlap
     ethr =  2.41E-03,  avg # of iterations =  1.0

     total cpu time spent up to now is     2336.0 secs

     total energy              =    -588.21288495 Ry
     Harris-Foulkes estimate   =    -588.46957966 Ry
     estimated scf accuracy    <       1.07399570 Ry

     iteration #  9     ecut=    50.00 Ry     beta= 0.60
     Davidson diagonalization with overlap
     ethr =  1.68E-03,  avg # of iterations =  4.1

     total cpu time spent up to now is     2370.6 secs

     total energy              =    -588.37020042 Ry
     Harris-Foulkes estimate   =    -588.39778698 Ry
     estimated scf accuracy    <       0.24805500 Ry

     iteration # 10     ecut=    50.00 Ry     beta= 0.60
     Davidson diagonalization with overlap
     ethr =  3.88E-04,  avg # of iterations =  2.2

     total cpu time spent up to now is     2397.0 secs

     total energy              =    -588.38418137 Ry
     Harris-Foulkes estimate   =    -588.38595441 Ry
     estimated scf accuracy    <       0.03438244 Ry

     iteration # 11     ecut=    50.00 Ry     beta= 0.60
     Davidson diagonalization with overlap
     ethr =  5.37E-05,  avg # of iterations =  5.8

     total cpu time spent up to now is     2445.5 secs

     total energy              =    -588.26988603 Ry
     Harris-Foulkes estimate   =    -588.51354990 Ry
     estimated scf accuracy    <       2.74229763 Ry

     iteration # 12     ecut=    50.00 Ry     beta= 0.60
     Davidson diagonalization with overlap
     ethr =  5.37E-05,  avg # of iterations =  6.2

     total cpu time spent up to now is     2491.7 secs

     total energy              =    -588.38580646 Ry
     Harris-Foulkes estimate   =    -588.38129742 Ry
     estimated scf accuracy    <       0.05314666 Ry

     iteration # 13     ecut=    50.00 Ry     beta= 0.60
     Davidson diagonalization with overlap
     ethr =  5.37E-05,  avg # of iterations =  4.1

     total cpu time spent up to now is     2522.3 secs

     total energy              =    -588.37814071 Ry
     Harris-Foulkes estimate   =    -588.39077672 Ry
     estimated scf accuracy    <       0.20788837 Ry

     iteration # 14     ecut=    50.00 Ry     beta= 0.60
     Davidson diagonalization with overlap
     ethr =  5.37E-05,  avg # of iterations =  1.2

     total cpu time spent up to now is     2547.6 secs

     total energy              =    -588.36684236 Ry
     Harris-Foulkes estimate   =    -588.38048921 Ry
     estimated scf accuracy    <       0.07767849 Ry

     iteration # 15     ecut=    50.00 Ry     beta= 0.60
     Davidson diagonalization with overlap
     ethr =  5.37E-05,  avg # of iterations =  5.1

     total cpu time spent up to now is     2584.0 secs

     total energy              =    -588.37767606 Ry
     Harris-Foulkes estimate   =    -588.37827171 Ry
     estimated scf accuracy    <       0.01284439 Ry

     iteration # 16     ecut=    50.00 Ry     beta= 0.60
     Davidson diagonalization with overlap
     ethr =  2.01E-05,  avg # of iterations =  1.4

     total cpu time spent up to now is     2609.6 secs

     total energy              =    -588.37677865 Ry
     Harris-Foulkes estimate   =    -588.37774517 Ry
     estimated scf accuracy    <       0.00888644 Ry

     iteration # 17     ecut=    50.00 Ry     beta= 0.60
     Davidson diagonalization with overlap
     ethr =  1.39E-05,  avg # of iterations =  2.4

     total cpu time spent up to now is     2636.3 secs

     total energy              =    -588.37706328 Ry
     Harris-Foulkes estimate   =    -588.37708961 Ry
     estimated scf accuracy    <       0.00130763 Ry

     iteration # 18     ecut=    50.00 Ry     beta= 0.60
     Davidson diagonalization with overlap
     ethr =  2.04E-06,  avg # of iterations =  5.7

     total cpu time spent up to now is     2670.2 secs

     total energy              =    -588.37709706 Ry
     Harris-Foulkes estimate   =    -588.37714784 Ry
     estimated scf accuracy    <       0.00050571 Ry

     iteration # 19     ecut=    50.00 Ry     beta= 0.60
     Davidson diagonalization with overlap
     ethr =  7.90E-07,  avg # of iterations =  2.2

     total cpu time spent up to now is     2696.8 secs

     total energy              =    -588.37710611 Ry
     Harris-Foulkes estimate   =    -588.37711363 Ry
     estimated scf accuracy    <       0.00010713 Ry

     iteration # 20     ecut=    50.00 Ry     beta= 0.60
     Davidson diagonalization with overlap
     ethr =  1.67E-07,  avg # of iterations =  3.9

     total cpu time spent up to now is     2727.2 secs

     total energy              =    -588.37711377 Ry
     Harris-Foulkes estimate   =    -588.37711589 Ry
     estimated scf accuracy    <       0.00000885 Ry

     iteration # 21     ecut=    50.00 Ry     beta= 0.60
     Davidson diagonalization with overlap
     ethr =  1.38E-08,  avg # of iterations =  4.1

     total cpu time spent up to now is     2759.9 secs

     total energy              =    -588.37711566 Ry
     Harris-Foulkes estimate   =    -588.37711578 Ry
     estimated scf accuracy    <       0.00000378 Ry

     iteration # 22     ecut=    50.00 Ry     beta= 0.60
     Davidson diagonalization with overlap
     ethr =  5.91E-09,  avg # of iterations =  1.1

     total cpu time spent up to now is     2785.2 secs

     total energy              =    -588.37711571 Ry
     Harris-Foulkes estimate   =    -588.37711571 Ry
     estimated scf accuracy    <       0.00000308 Ry

     iteration # 23     ecut=    50.00 Ry     beta= 0.60
     Davidson diagonalization with overlap
     ethr =  4.81E-09,  avg # of iterations =  1.0

     total cpu time spent up to now is     2810.3 secs

     total energy              =    -588.37711572 Ry
     Harris-Foulkes estimate   =    -588.37711572 Ry
     estimated scf accuracy    <       0.00000322 Ry

     iteration # 24     ecut=    50.00 Ry     beta= 0.60
     Davidson diagonalization with overlap
     ethr =  4.81E-09,  avg # of iterations =  1.0

     total cpu time spent up to now is     2835.5 secs

     total energy              =    -588.37711557 Ry
     Harris-Foulkes estimate   =    -588.37711572 Ry
     estimated scf accuracy    <       0.00000324 Ry

     iteration # 25     ecut=    50.00 Ry     beta= 0.60
     Davidson diagonalization with overlap
     ethr =  4.81E-09,  avg # of iterations =  1.0

     total cpu time spent up to now is     2860.6 secs

     total energy              =    -588.37711581 Ry
     Harris-Foulkes estimate   =    -588.37711559 Ry
     estimated scf accuracy    <       0.00000184 Ry

     iteration # 26     ecut=    50.00 Ry     beta= 0.60
     Davidson diagonalization with overlap
     ethr =  2.88E-09,  avg # of iterations =  1.0

     total cpu time spent up to now is     2885.8 secs

     total energy              =    -588.37711530 Ry
     Harris-Foulkes estimate   =    -588.37711586 Ry
     estimated scf accuracy    <       0.00000435 Ry

     iteration # 27     ecut=    50.00 Ry     beta= 0.60
     Davidson diagonalization with overlap
     ethr =  2.88E-09,  avg # of iterations =  1.1

     total cpu time spent up to now is     2911.0 secs

     total energy              =    -588.37711535 Ry
     Harris-Foulkes estimate   =    -588.37711545 Ry
     estimated scf accuracy    <       0.00000062 Ry

     iteration # 28     ecut=    50.00 Ry     beta= 0.60
     Davidson diagonalization with overlap
     ethr =  9.62E-10,  avg # of iterations =  3.6

     total cpu time spent up to now is     2942.3 secs

     total energy              =    -588.37711546 Ry
     Harris-Foulkes estimate   =    -588.37711546 Ry
     estimated scf accuracy    <       0.00000008 Ry

     iteration # 29     ecut=    50.00 Ry     beta= 0.60
     Davidson diagonalization with overlap
     ethr =  1.24E-10,  avg # of iterations =  1.8

     total cpu time spent up to now is     2968.5 secs

     total energy              =    -588.37711545 Ry
     Harris-Foulkes estimate   =    -588.37711547 Ry
     estimated scf accuracy    <       0.00000014 Ry

     iteration # 30     ecut=    50.00 Ry     beta= 0.60
     Davidson diagonalization with overlap
     ethr =  1.24E-10,  avg # of iterations =  1.0

     total cpu time spent up to now is     2993.6 secs

     total energy              =    -588.37711545 Ry
     Harris-Foulkes estimate   =    -588.37711546 Ry
     estimated scf accuracy    <       0.00000005 Ry

     iteration # 31     ecut=    50.00 Ry     beta= 0.60
     Davidson diagonalization with overlap
     ethr =  7.71E-11,  avg # of iterations =  3.2

     total cpu time spent up to now is     3022.3 secs

     End of self-consistent calculation

     Number of k-points >= 100: set verbosity='high' to print the bands.

     the Fermi energy is    17.6293 ev

!    total energy              =    -588.37711545 Ry
     Harris-Foulkes estimate   =    -588.37711545 Ry
     estimated scf accuracy    <          1.5E-11 Ry

     The total energy is the sum of the following terms:

     one-electron contribution =     -98.90323417 Ry
     hartree contribution      =      82.53045701 Ry
     xc contribution           =     -88.46491597 Ry
     ewald contribution        =    -483.53856790 Ry
     smearing contrib. (-TS)   =      -0.00085442 Ry

     convergence has been achieved in  31 iterations

     Forces acting on atoms (cartesian axes, Ry/au):

     atom    1 type  2   force =     0.00000000   -0.00000000    0.00000000
     atom    2 type  1   force =     0.00000000   -0.00136965   -0.00691082
     atom    3 type  1   force =     0.00000000   -0.00691082    0.00136965
     atom    4 type  1   force =     0.00000000    0.00691082   -0.00136965
     atom    5 type  1   force =     0.00000000    0.00136965    0.00691082

     Total force =     0.014090     Total SCF correction =     0.000005


     Computing stress (Cartesian axis) and pressure

          total   stress  (Ry/bohr**3)                   (kbar)     P=   48.69
   0.00034577  -0.00000000   0.00000000         50.86     -0.00      0.00
  -0.00000000   0.00032360  -0.00000000         -0.00     47.60     -0.00
  -0.00000000   0.00000000   0.00032360         -0.00      0.00     47.60


     number of scf cycles    =   3
     number of bfgs steps    =   2

     enthalpy old            =    -588.3571452861 Ry
     enthalpy new            =    -588.3771154538 Ry

     CASE: enthalpy_new < enthalpy_old

     new trust radius        =       0.0522883604 bohr
     new conv_thr            =            1.0E-10 Ry

     new unit-cell volume =    604.93905 a.u.^3 (    89.64272 Ang^3 )
     density =      7.77067 g/cm^3

CELL_PARAMETERS (alat=  1.88972599)
  -1.650000648  -4.944492881  -1.648164294
  -1.650000648   4.944492881   1.648164294
   1.650000648   1.648164294  -4.944492881

ATOMIC_POSITIONS (angstrom)
Ti      -1.650000648   1.648164294  -4.944492881
Nb      -1.650000648   1.660663573  -1.667935278
Nb      -1.650000648  -1.667935278  -1.660663573
Nb       0.000000000   3.316099571  -3.283829308
Nb       0.000000000  -0.012499279  -3.276557603


     NEW-OLD atomic charge density approx. for the potential
     extrapolated charge   65.96303, renormalised to   64.00000

     total cpu time spent up to now is     3036.4 secs

     Self-consistent Calculation

     iteration #  1     ecut=    50.00 Ry     beta= 0.60
     Davidson diagonalization with overlap
     ethr =  1.00E-06,  avg # of iterations = 12.5

     total cpu time spent up to now is     3111.3 secs

     total energy              =    -588.18858023 Ry
     Harris-Foulkes estimate   =    -586.10245111 Ry
     estimated scf accuracy    <       0.14431138 Ry

     iteration #  2     ecut=    50.00 Ry     beta= 0.60
     Davidson diagonalization with overlap
     ethr =  2.25E-04,  avg # of iterations =  6.8

     total cpu time spent up to now is     3165.5 secs

     total energy              =    -588.05088304 Ry
     Harris-Foulkes estimate   =    -588.66865605 Ry
     estimated scf accuracy    <       5.53893289 Ry

     iteration #  3     ecut=    50.00 Ry     beta= 0.60
     Davidson diagonalization with overlap
     ethr =  2.25E-04,  avg # of iterations =  5.6

     total cpu time spent up to now is     3208.4 secs

     total energy              =    -588.36085055 Ry
     Harris-Foulkes estimate   =    -588.43993139 Ry
     estimated scf accuracy    <       0.32148546 Ry

     iteration #  4     ecut=    50.00 Ry     beta= 0.60
     Davidson diagonalization with overlap
     ethr =  2.25E-04,  avg # of iterations =  3.3

     total cpu time spent up to now is     3239.8 secs

     total energy              =    -588.38487534 Ry
     Harris-Foulkes estimate   =    -588.38926770 Ry
     estimated scf accuracy    <       0.03010307 Ry

     iteration #  5     ecut=    50.00 Ry     beta= 0.60
     Davidson diagonalization with overlap
     ethr =  4.70E-05,  avg # of iterations =  4.9

     total cpu time spent up to now is     3270.7 secs

     total energy              =    -588.38169316 Ry
     Harris-Foulkes estimate   =    -588.38626876 Ry
     estimated scf accuracy    <       0.02515183 Ry

     iteration #  6     ecut=    50.00 Ry     beta= 0.60
     Davidson diagonalization with overlap
     ethr =  3.93E-05,  avg # of iterations =  1.0

     total cpu time spent up to now is     3296.0 secs

     total energy              =    -588.38006943 Ry
     Harris-Foulkes estimate   =    -588.38238365 Ry
     estimated scf accuracy    <       0.01504411 Ry

     iteration #  7     ecut=    50.00 Ry     beta= 0.60
     Davidson diagonalization with overlap
     ethr =  2.35E-05,  avg # of iterations =  1.9

     total cpu time spent up to now is     3322.0 secs

     total energy              =    -588.37962422 Ry
     Harris-Foulkes estimate   =    -588.38061659 Ry
     estimated scf accuracy    <       0.00670650 Ry

     iteration #  8     ecut=    50.00 Ry     beta= 0.60
     Davidson diagonalization with overlap
     ethr =  1.05E-05,  avg # of iterations =  3.0

     total cpu time spent up to now is     3349.4 secs

     total energy              =    -588.37987477 Ry
     Harris-Foulkes estimate   =    -588.37995866 Ry
     estimated scf accuracy    <       0.00163829 Ry

     iteration #  9     ecut=    50.00 Ry     beta= 0.60
     Davidson diagonalization with overlap
     ethr =  2.56E-06,  avg # of iterations =  6.1

     total cpu time spent up to now is     3383.6 secs

     total energy              =    -588.37996641 Ry
     Harris-Foulkes estimate   =    -588.37998386 Ry
     estimated scf accuracy    <       0.00039826 Ry

     iteration # 10     ecut=    50.00 Ry     beta= 0.60
     Davidson diagonalization with overlap
     ethr =  6.22E-07,  avg # of iterations =  2.8

     total cpu time spent up to now is     3412.1 secs

     total energy              =    -588.37996986 Ry
     Harris-Foulkes estimate   =    -588.37999599 Ry
     estimated scf accuracy    <       0.00028539 Ry

     iteration # 11     ecut=    50.00 Ry     beta= 0.60
     Davidson diagonalization with overlap
     ethr =  4.46E-07,  avg # of iterations =  1.5

     total cpu time spent up to now is     3437.8 secs

     total energy              =    -588.37995361 Ry
     Harris-Foulkes estimate   =    -588.37998281 Ry
     estimated scf accuracy    <       0.00027546 Ry

     iteration # 12     ecut=    50.00 Ry     beta= 0.60
     Davidson diagonalization with overlap
     ethr =  4.30E-07,  avg # of iterations =  1.0

     total cpu time spent up to now is     3463.0 secs

     total energy              =    -588.37995834 Ry
     Harris-Foulkes estimate   =    -588.37996259 Ry
     estimated scf accuracy    <       0.00005666 Ry

     iteration # 13     ecut=    50.00 Ry     beta= 0.60
     Davidson diagonalization with overlap
     ethr =  8.85E-08,  avg # of iterations =  4.0

     total cpu time spent up to now is     3495.0 secs

     total energy              =    -588.37996535 Ry
     Harris-Foulkes estimate   =    -588.37996517 Ry
     estimated scf accuracy    <       0.00000129 Ry

     iteration # 14     ecut=    50.00 Ry     beta= 0.60
     Davidson diagonalization with overlap
     ethr =  2.02E-09,  avg # of iterations =  4.1

     total cpu time spent up to now is     3528.7 secs

     total energy              =    -588.37996505 Ry
     Harris-Foulkes estimate   =    -588.37996574 Ry
     estimated scf accuracy    <       0.00000678 Ry

     iteration # 15     ecut=    50.00 Ry     beta= 0.60
     Davidson diagonalization with overlap
     ethr =  2.02E-09,  avg # of iterations =  3.5

     total cpu time spent up to now is     3557.1 secs

     total energy              =    -588.37996512 Ry
     Harris-Foulkes estimate   =    -588.37996519 Ry
     estimated scf accuracy    <       0.00000169 Ry

     iteration # 16     ecut=    50.00 Ry     beta= 0.60
     Davidson diagonalization with overlap
     ethr =  2.02E-09,  avg # of iterations =  1.0

     total cpu time spent up to now is     3582.2 secs

     total energy              =    -588.37996511 Ry
     Harris-Foulkes estimate   =    -588.37996514 Ry
     estimated scf accuracy    <       0.00000114 Ry

     iteration # 17     ecut=    50.00 Ry     beta= 0.60
     Davidson diagonalization with overlap
     ethr =  1.79E-09,  avg # of iterations =  1.0

     total cpu time spent up to now is     3607.2 secs

     total energy              =    -588.37996504 Ry
     Harris-Foulkes estimate   =    -588.37996512 Ry
     estimated scf accuracy    <       0.00000094 Ry

     iteration # 18     ecut=    50.00 Ry     beta= 0.60
     Davidson diagonalization with overlap
     ethr =  1.47E-09,  avg # of iterations =  2.5

     total cpu time spent up to now is     3634.6 secs

     total energy              =    -588.37996506 Ry
     Harris-Foulkes estimate   =    -588.37996508 Ry
     estimated scf accuracy    <       0.00000021 Ry

     iteration # 19     ecut=    50.00 Ry     beta= 0.60
     Davidson diagonalization with overlap
     ethr =  3.28E-10,  avg # of iterations =  3.9

     total cpu time spent up to now is     3665.2 secs

     total energy              =    -588.37996508 Ry
     Harris-Foulkes estimate   =    -588.37996508 Ry
     estimated scf accuracy    <          2.5E-09 Ry

     iteration # 20     ecut=    50.00 Ry     beta= 0.60
     Davidson diagonalization with overlap
     ethr =  3.85E-12,  avg # of iterations =  4.8

     total cpu time spent up to now is     3702.2 secs

     total energy              =    -588.37996509 Ry
     Harris-Foulkes estimate   =    -588.37996509 Ry
     estimated scf accuracy    <          1.7E-10 Ry

     iteration # 21     ecut=    50.00 Ry     beta= 0.60
     Davidson diagonalization with overlap
     ethr =  2.63E-13,  avg # of iterations =  3.8

     total cpu time spent up to now is     3733.7 secs

     total energy              =    -588.37996509 Ry
     Harris-Foulkes estimate   =    -588.37996509 Ry
     estimated scf accuracy    <          8.2E-10 Ry

     iteration # 22     ecut=    50.00 Ry     beta= 0.60
     Davidson diagonalization with overlap
     ethr =  2.63E-13,  avg # of iterations =  3.5

     total cpu time spent up to now is     3762.7 secs

     End of self-consistent calculation

     Number of k-points >= 100: set verbosity='high' to print the bands.

     the Fermi energy is    16.9930 ev

!    total energy              =    -588.37996509 Ry
     Harris-Foulkes estimate   =    -588.37996509 Ry
     estimated scf accuracy    <          8.5E-11 Ry

     The total energy is the sum of the following terms:

     one-electron contribution =    -106.09143747 Ry
     hartree contribution      =      84.47869690 Ry
     xc contribution           =     -88.29323102 Ry
     ewald contribution        =    -478.47327811 Ry
     smearing contrib. (-TS)   =      -0.00071539 Ry

     convergence has been achieved in  22 iterations

     Forces acting on atoms (cartesian axes, Ry/au):

     atom    1 type  2   force =    -0.00000000    0.00000000   -0.00000000
     atom    2 type  1   force =    -0.00000000    0.00123493   -0.00765434
     atom    3 type  1   force =     0.00000000   -0.00765434   -0.00123493
     atom    4 type  1   force =    -0.00000000    0.00765434    0.00123493
     atom    5 type  1   force =     0.00000000   -0.00123493    0.00765434

     Total force =     0.015507     Total SCF correction =     0.000022


     Computing stress (Cartesian axis) and pressure

          total   stress  (Ry/bohr**3)                   (kbar)     P=   -3.66
  -0.00001496  -0.00000000  -0.00000000         -2.20     -0.00     -0.00
  -0.00000000  -0.00002985  -0.00000000         -0.00     -4.39     -0.00
  -0.00000000   0.00000000  -0.00002985         -0.00      0.00     -4.39


     number of scf cycles    =   4
     number of bfgs steps    =   3

     enthalpy old            =    -588.3771154538 Ry
     enthalpy new            =    -588.3799650857 Ry

     CASE: enthalpy_new < enthalpy_old

     new trust radius        =       0.0069812507 bohr
     new conv_thr            =            1.0E-10 Ry

     new unit-cell volume =    603.76945 a.u.^3 (    89.46940 Ang^3 )
     density =      7.78572 g/cm^3

CELL_PARAMETERS (alat=  1.88972599)
  -1.649333898  -4.940709021  -1.646903007
  -1.649333898   4.940709021   1.646903007
   1.649333898   1.646903007  -4.940709021

ATOMIC_POSITIONS (angstrom)
Ti      -1.649333898   1.646903007  -4.940709021
Nb      -1.649333898   1.659994613  -1.670300953
Nb      -1.649333898  -1.670300953  -1.659994613
Nb      -0.000000000   3.317203960  -3.280714408
Nb       0.000000000  -0.013091606  -3.270408068


     NEW-OLD atomic charge density approx. for the potential
     extrapolated charge   63.87798, renormalised to   64.00000

     total cpu time spent up to now is     3776.7 secs

     Self-consistent Calculation

     iteration #  1     ecut=    50.00 Ry     beta= 0.60
     Davidson diagonalization with overlap
     ethr =  1.00E-06,  avg # of iterations =  4.1

     total cpu time spent up to now is     3825.3 secs

     total energy              =    -588.37941813 Ry
     Harris-Foulkes estimate   =    -588.52286552 Ry
     estimated scf accuracy    <       0.00059130 Ry

     iteration #  2     ecut=    50.00 Ry     beta= 0.60
     Davidson diagonalization with overlap
     ethr =  9.24E-07,  avg # of iterations =  5.8

     total cpu time spent up to now is     3876.8 secs

     total energy              =    -588.37975910 Ry
     Harris-Foulkes estimate   =    -588.38071733 Ry
     estimated scf accuracy    <       0.00395710 Ry

     iteration #  3     ecut=    50.00 Ry     beta= 0.60
     Davidson diagonalization with overlap
     ethr =  9.24E-07,  avg # of iterations =  5.2

     total cpu time spent up to now is     3919.9 secs

     total energy              =    -588.37994337 Ry
     Harris-Foulkes estimate   =    -588.38050805 Ry
     estimated scf accuracy    <       0.00301138 Ry

     iteration #  4     ecut=    50.00 Ry     beta= 0.60
     Davidson diagonalization with overlap
     ethr =  9.24E-07,  avg # of iterations =  4.6

     total cpu time spent up to now is     3955.2 secs

     total energy              =    -588.38020562 Ry
     Harris-Foulkes estimate   =    -588.38024219 Ry
     estimated scf accuracy    <       0.00032613 Ry

     iteration #  5     ecut=    50.00 Ry     beta= 0.60
     Davidson diagonalization with overlap
     ethr =  5.10E-07,  avg # of iterations =  1.0

     total cpu time spent up to now is     3980.4 secs

     total energy              =    -588.38016038 Ry
     Harris-Foulkes estimate   =    -588.38021030 Ry
     estimated scf accuracy    <       0.00016990 Ry

     iteration #  6     ecut=    50.00 Ry     beta= 0.60
     Davidson diagonalization with overlap
     ethr =  2.65E-07,  avg # of iterations =  3.7

     total cpu time spent up to now is     4011.4 secs

     total energy              =    -588.38018376 Ry
     Harris-Foulkes estimate   =    -588.38018378 Ry
     estimated scf accuracy    <       0.00000127 Ry

     iteration #  7     ecut=    50.00 Ry     beta= 0.60
     Davidson diagonalization with overlap
     ethr =  1.99E-09,  avg # of iterations =  5.1

     total cpu time spent up to now is     4054.7 secs

     total energy              =    -588.38018506 Ry
     Harris-Foulkes estimate   =    -588.38018540 Ry
     estimated scf accuracy    <       0.00000365 Ry

     iteration #  8     ecut=    50.00 Ry     beta= 0.60
     Davidson diagonalization with overlap
     ethr =  1.99E-09,  avg # of iterations =  1.2

     total cpu time spent up to now is     4080.1 secs

     total energy              =    -588.38018488 Ry
     Harris-Foulkes estimate   =    -588.38018512 Ry
     estimated scf accuracy    <       0.00000123 Ry

     iteration #  9     ecut=    50.00 Ry     beta= 0.60
     Davidson diagonalization with overlap
     ethr =  1.93E-09,  avg # of iterations =  3.9

     total cpu time spent up to now is     4111.6 secs

     total energy              =    -588.38018504 Ry
     Harris-Foulkes estimate   =    -588.38018507 Ry
     estimated scf accuracy    <       0.00000017 Ry

     iteration # 10     ecut=    50.00 Ry     beta= 0.60
     Davidson diagonalization with overlap
     ethr =  2.67E-10,  avg # of iterations =  2.8

     total cpu time spent up to now is     4139.7 secs

     total energy              =    -588.38018505 Ry
     Harris-Foulkes estimate   =    -588.38018506 Ry
     estimated scf accuracy    <       0.00000002 Ry

     iteration # 11     ecut=    50.00 Ry     beta= 0.60
     Davidson diagonalization with overlap
     ethr =  3.63E-11,  avg # of iterations =  4.2

     total cpu time spent up to now is     4174.3 secs

     total energy              =    -588.38018505 Ry
     Harris-Foulkes estimate   =    -588.38018505 Ry
     estimated scf accuracy    <          3.2E-09 Ry

     iteration # 12     ecut=    50.00 Ry     beta= 0.60
     Davidson diagonalization with overlap
     ethr =  5.08E-12,  avg # of iterations =  2.1

     total cpu time spent up to now is     4201.2 secs

     total energy              =    -588.38018505 Ry
     Harris-Foulkes estimate   =    -588.38018505 Ry
     estimated scf accuracy    <          1.1E-09 Ry

     iteration # 13     ecut=    50.00 Ry     beta= 0.60
     Davidson diagonalization with overlap
     ethr =  1.67E-12,  avg # of iterations =  3.3

     total cpu time spent up to now is     4231.7 secs

     End of self-consistent calculation

     Number of k-points >= 100: set verbosity='high' to print the bands.

     the Fermi energy is    17.0316 ev

!    total energy              =    -588.38018505 Ry
     Harris-Foulkes estimate   =    -588.38018505 Ry
     estimated scf accuracy    <          3.1E-11 Ry

     The total energy is the sum of the following terms:

     one-electron contribution =    -105.68600862 Ry
     hartree contribution      =      84.37475160 Ry
     xc contribution           =     -88.30432602 Ry
     ewald contribution        =    -478.76388312 Ry
     smearing contrib. (-TS)   =      -0.00071889 Ry

     convergence has been achieved in  13 iterations

     Forces acting on atoms (cartesian axes, Ry/au):

     atom    1 type  2   force =    -0.00000000    0.00000000   -0.00000000
     atom    2 type  1   force =     0.00000000    0.00063077   -0.00669882
     atom    3 type  1   force =    -0.00000000   -0.00669882   -0.00063077
     atom    4 type  1   force =    -0.00000000    0.00669882    0.00063077
     atom    5 type  1   force =     0.00000000   -0.00063077    0.00669882

     Total force =     0.013457     Total SCF correction =     0.000016


     Computing stress (Cartesian axis) and pressure

          total   stress  (Ry/bohr**3)                   (kbar)     P=   -0.38
   0.00000631   0.00000000  -0.00000000          0.93      0.00     -0.00
   0.00000000  -0.00000700   0.00000000          0.00     -1.03      0.00
  -0.00000000  -0.00000000  -0.00000700         -0.00     -0.00     -1.03


     number of scf cycles    =   5
     number of bfgs steps    =   4

     enthalpy old            =    -588.3799650857 Ry
     enthalpy new            =    -588.3801850529 Ry

     CASE: enthalpy_new < enthalpy_old

     new trust radius        =       0.0104638623 bohr
     new conv_thr            =            1.0E-10 Ry

     new unit-cell volume =    603.32318 a.u.^3 (    89.40327 Ang^3 )
     density =      7.79148 g/cm^3

CELL_PARAMETERS (alat=  1.88972599)
  -1.649537022  -4.938578651  -1.646192884
  -1.649537022   4.938578651   1.646192884
   1.649537022   1.646192884  -4.938578651

ATOMIC_POSITIONS (angstrom)
Ti      -1.649537022   1.646192884  -4.938578651
Nb      -1.649537022   1.659899190  -1.675080717
Nb      -1.649537022  -1.675080717  -1.659899190
Nb       0.000000000   3.321273601  -3.278679462
Nb      -0.000000000  -0.013706306  -3.263497934


     NEW-OLD atomic charge density approx. for the potential
     extrapolated charge   63.95341, renormalised to   64.00000

     total cpu time spent up to now is     4245.7 secs

     Self-consistent Calculation

     iteration #  1     ecut=    50.00 Ry     beta= 0.60
     Davidson diagonalization with overlap
     ethr =  1.00E-06,  avg # of iterations =  4.0

     total cpu time spent up to now is     4296.8 secs

     total energy              =    -588.38026169 Ry
     Harris-Foulkes estimate   =    -588.43486878 Ry
     estimated scf accuracy    <       0.00021537 Ry

     iteration #  2     ecut=    50.00 Ry     beta= 0.60
     Davidson diagonalization with overlap
     ethr =  3.37E-07,  avg # of iterations =  5.1

     total cpu time spent up to now is     4342.1 secs

     total energy              =    -588.37999955 Ry
     Harris-Foulkes estimate   =    -588.38078133 Ry
     estimated scf accuracy    <       0.00457466 Ry

     iteration #  3     ecut=    50.00 Ry     beta= 0.60
     Davidson diagonalization with overlap
     ethr =  3.37E-07,  avg # of iterations =  5.2

     total cpu time spent up to now is     4384.2 secs

     total energy              =    -588.38042165 Ry
     Harris-Foulkes estimate   =    -588.38049731 Ry
     estimated scf accuracy    <       0.00053894 Ry

     iteration #  4     ecut=    50.00 Ry     beta= 0.60
     Davidson diagonalization with overlap
     ethr =  3.37E-07,  avg # of iterations =  3.0

     total cpu time spent up to now is     4411.8 secs

     total energy              =    -588.38042323 Ry
     Harris-Foulkes estimate   =    -588.38044000 Ry
     estimated scf accuracy    <       0.00008617 Ry

     iteration #  5     ecut=    50.00 Ry     beta= 0.60
     Davidson diagonalization with overlap
     ethr =  1.35E-07,  avg # of iterations =  4.0

     total cpu time spent up to now is     4444.1 secs

     total energy              =    -588.38043726 Ry
     Harris-Foulkes estimate   =    -588.38043805 Ry
     estimated scf accuracy    <       0.00000597 Ry

     iteration #  6     ecut=    50.00 Ry     beta= 0.60
     Davidson diagonalization with overlap
     ethr =  9.33E-09,  avg # of iterations =  3.1

     total cpu time spent up to now is     4473.4 secs

     total energy              =    -588.38043777 Ry
     Harris-Foulkes estimate   =    -588.38043787 Ry
     estimated scf accuracy    <       0.00000143 Ry

     iteration #  7     ecut=    50.00 Ry     beta= 0.60
     Davidson diagonalization with overlap
     ethr =  2.23E-09,  avg # of iterations =  3.0

     total cpu time spent up to now is     4501.7 secs

     total energy              =    -588.38043782 Ry
     Harris-Foulkes estimate   =    -588.38043786 Ry
     estimated scf accuracy    <       0.00000025 Ry

     iteration #  8     ecut=    50.00 Ry     beta= 0.60
     Davidson diagonalization with overlap
     ethr =  3.89E-10,  avg # of iterations =  3.6

     total cpu time spent up to now is     4532.2 secs

     total energy              =    -588.38043784 Ry
     Harris-Foulkes estimate   =    -588.38043785 Ry
     estimated scf accuracy    <       0.00000002 Ry

     iteration #  9     ecut=    50.00 Ry     beta= 0.60
     Davidson diagonalization with overlap
     ethr =  3.32E-11,  avg # of iterations =  4.6

     total cpu time spent up to now is     4569.8 secs

     total energy              =    -588.38043784 Ry
     Harris-Foulkes estimate   =    -588.38043785 Ry
     estimated scf accuracy    <       0.00000002 Ry

     iteration # 10     ecut=    50.00 Ry     beta= 0.60
     Davidson diagonalization with overlap
     ethr =  3.32E-11,  avg # of iterations =  1.8

     total cpu time spent up to now is     4596.0 secs

     total energy              =    -588.38043785 Ry
     Harris-Foulkes estimate   =    -588.38043785 Ry
     estimated scf accuracy    <          7.1E-10 Ry

     iteration # 11     ecut=    50.00 Ry     beta= 0.60
     Davidson diagonalization with overlap
     ethr =  1.10E-12,  avg # of iterations =  5.0

     total cpu time spent up to now is     4635.9 secs

     total energy              =    -588.38043785 Ry
     Harris-Foulkes estimate   =    -588.38043785 Ry
     estimated scf accuracy    <          1.2E-09 Ry

     iteration # 12     ecut=    50.00 Ry     beta= 0.60
     Davidson diagonalization with overlap
     ethr =  1.10E-12,  avg # of iterations =  1.0

     total cpu time spent up to now is     4661.2 secs

     total energy              =    -588.38043785 Ry
     Harris-Foulkes estimate   =    -588.38043785 Ry
     estimated scf accuracy    <          4.8E-10 Ry

     iteration # 13     ecut=    50.00 Ry     beta= 0.60
     Davidson diagonalization with overlap
     ethr =  7.50E-13,  avg # of iterations =  3.1

     total cpu time spent up to now is     4691.0 secs

     End of self-consistent calculation

     Number of k-points >= 100: set verbosity='high' to print the bands.

     the Fermi energy is    17.0467 ev

!    total energy              =    -588.38043785 Ry
     Harris-Foulkes estimate   =    -588.38043785 Ry
     estimated scf accuracy    <          4.0E-11 Ry

     The total energy is the sum of the following terms:

     one-electron contribution =    -105.56722202 Ry
     hartree contribution      =      84.35244041 Ry
     xc contribution           =     -88.30943734 Ry
     ewald contribution        =    -478.85550658 Ry
     smearing contrib. (-TS)   =      -0.00071232 Ry

     convergence has been achieved in  13 iterations

     Forces acting on atoms (cartesian axes, Ry/au):

     atom    1 type  2   force =    -0.00000000   -0.00000000    0.00000000
     atom    2 type  1   force =    -0.00000000   -0.00002904   -0.00531992
     atom    3 type  1   force =     0.00000000   -0.00531992    0.00002904
     atom    4 type  1   force =    -0.00000000    0.00531992   -0.00002904
     atom    5 type  1   force =     0.00000000    0.00002904    0.00531992

     Total force =     0.010640     Total SCF correction =     0.000011


     Computing stress (Cartesian axis) and pressure

          total   stress  (Ry/bohr**3)                   (kbar)     P=    1.16
   0.00001498   0.00000000  -0.00000000          2.20      0.00     -0.00
   0.00000000   0.00000432  -0.00000000          0.00      0.64     -0.00
  -0.00000000   0.00000000   0.00000432         -0.00      0.00      0.64


     number of scf cycles    =   6
     number of bfgs steps    =   5

     enthalpy old            =    -588.3801850529 Ry
     enthalpy new            =    -588.3804378465 Ry

     CASE: enthalpy_new < enthalpy_old

     new trust radius        =       0.0156890256 bohr
     new conv_thr            =            1.0E-10 Ry

     new unit-cell volume =    603.34182 a.u.^3 (    89.40603 Ang^3 )
     density =      7.79124 g/cm^3

CELL_PARAMETERS (alat=  1.88972599)
  -1.650473906  -4.937253054  -1.645751018
  -1.650473906   4.937253054   1.645751018
   1.650473906   1.645751018  -4.937253054

ATOMIC_POSITIONS (angstrom)
Ti      -1.650473906   1.645751018  -4.937253054
Nb      -1.650473906   1.659991522  -1.682913697
Nb      -1.650473906  -1.682913697  -1.659991522
Nb       0.000000000   3.328664715  -3.277261532
Nb      -0.000000000  -0.014240504  -3.254339357


     NEW-OLD atomic charge density approx. for the potential
     extrapolated charge   64.00195, renormalised to   64.00000

     total cpu time spent up to now is     4705.7 secs

     Self-consistent Calculation

     iteration #  1     ecut=    50.00 Ry     beta= 0.60
     Davidson diagonalization with overlap
     ethr =  1.00E-06,  avg # of iterations =  4.2

     total cpu time spent up to now is     4760.6 secs

     total energy              =    -588.38033187 Ry
     Harris-Foulkes estimate   =    -588.37847659 Ry
     estimated scf accuracy    <       0.00055843 Ry

     iteration #  2     ecut=    50.00 Ry     beta= 0.60
     Davidson diagonalization with overlap
     ethr =  8.73E-07,  avg # of iterations =  5.8

     total cpu time spent up to now is     4806.3 secs

     total energy              =    -588.37880500 Ry
     Harris-Foulkes estimate   =    -588.38262428 Ry
     estimated scf accuracy    <       0.02972980 Ry

     iteration #  3     ecut=    50.00 Ry     beta= 0.60
     Davidson diagonalization with overlap
     ethr =  8.73E-07,  avg # of iterations =  5.8

     total cpu time spent up to now is     4852.1 secs

     total energy              =    -588.38070751 Ry
     Harris-Foulkes estimate   =    -588.38070868 Ry
     estimated scf accuracy    <       0.00001208 Ry

     iteration #  4     ecut=    50.00 Ry     beta= 0.60
     Davidson diagonalization with overlap
     ethr =  1.89E-08,  avg # of iterations =  2.2

     total cpu time spent up to now is     4879.6 secs

     total energy              =    -588.38070840 Ry
     Harris-Foulkes estimate   =    -588.38070868 Ry
     estimated scf accuracy    <       0.00000090 Ry

     iteration #  5     ecut=    50.00 Ry     beta= 0.60
     Davidson diagonalization with overlap
     ethr =  1.41E-09,  avg # of iterations =  4.2

     total cpu time spent up to now is     4918.4 secs

     total energy              =    -588.38070868 Ry
     Harris-Foulkes estimate   =    -588.38070877 Ry
     estimated scf accuracy    <       0.00000030 Ry

     iteration #  6     ecut=    50.00 Ry     beta= 0.60
     Davidson diagonalization with overlap
     ethr =  4.75E-10,  avg # of iterations =  2.5

     total cpu time spent up to now is     4948.3 secs

     total energy              =    -588.38070871 Ry
     Harris-Foulkes estimate   =    -588.38070872 Ry
     estimated scf accuracy    <       0.00000005 Ry

     iteration #  7     ecut=    50.00 Ry     beta= 0.60
     Davidson diagonalization with overlap
     ethr =  7.09E-11,  avg # of iterations =  4.0

     total cpu time spent up to now is     4981.7 secs

     total energy              =    -588.38070872 Ry
     Harris-Foulkes estimate   =    -588.38070872 Ry
     estimated scf accuracy    <       0.00000001 Ry

     iteration #  8     ecut=    50.00 Ry     beta= 0.60
     Davidson diagonalization with overlap
     ethr =  2.14E-11,  avg # of iterations =  1.2

     total cpu time spent up to now is     5007.1 secs

     total energy              =    -588.38070872 Ry
     Harris-Foulkes estimate   =    -588.38070872 Ry
     estimated scf accuracy    <          5.2E-09 Ry

     iteration #  9     ecut=    50.00 Ry     beta= 0.60
     Davidson diagonalization with overlap
     ethr =  8.18E-12,  avg # of iterations =  3.2

     total cpu time spent up to now is     5036.6 secs

     End of self-consistent calculation

     Number of k-points >= 100: set verbosity='high' to print the bands.

     the Fermi energy is    17.0469 ev

!    total energy              =    -588.38070872 Ry
     Harris-Foulkes estimate   =    -588.38070872 Ry
     estimated scf accuracy    <          1.6E-11 Ry

     The total energy is the sum of the following terms:

     one-electron contribution =    -105.64757438 Ry
     hartree contribution      =      84.38972659 Ry
     xc contribution           =     -88.31105184 Ry
     ewald contribution        =    -478.81111655 Ry
     smearing contrib. (-TS)   =      -0.00069254 Ry

     convergence has been achieved in   9 iterations

     Forces acting on atoms (cartesian axes, Ry/au):

     atom    1 type  2   force =     0.00000000    0.00000000    0.00000000
     atom    2 type  1   force =    -0.00000000   -0.00076998   -0.00328151
     atom    3 type  1   force =     0.00000000   -0.00328151    0.00076998
     atom    4 type  1   force =    -0.00000000    0.00328151   -0.00076998
     atom    5 type  1   force =     0.00000000    0.00076998    0.00328151

     Total force =     0.006741     Total SCF correction =     0.000021


     Computing stress (Cartesian axis) and pressure

          total   stress  (Ry/bohr**3)                   (kbar)     P=    1.69
[...]
     the Fermi energy is    17.0183 ev

!    total energy              =    -588.38090646 Ry
     Harris-Foulkes estimate   =    -588.38090646 Ry
     estimated scf accuracy    <          2.2E-13 Ry

     The total energy is the sum of the following terms:

     one-electron contribution =    -106.04789784 Ry
     hartree contribution      =      84.51250557 Ry
     xc contribution           =     -88.30552064 Ry
     ewald contribution        =    -478.53939163 Ry
     smearing contrib. (-TS)   =      -0.00060191 Ry

     convergence has been achieved in   6 iterations

     Forces acting on atoms (cartesian axes, Ry/au):

     atom    1 type  2   force =    -0.00000000   -0.00000000    0.00000000
     atom    2 type  1   force =    -0.00000000    0.00000650    0.00000084
     atom    3 type  1   force =     0.00000000    0.00000084   -0.00000650
     atom    4 type  1   force =    -0.00000000   -0.00000084    0.00000650
     atom    5 type  1   force =     0.00000000   -0.00000650   -0.00000084

     Total force =     0.000013     Total SCF correction =     0.000002
     SCF correction compared to forces is large: reduce conv_thr to get better values


     Computing stress (Cartesian axis) and pressure

          total   stress  (Ry/bohr**3)                   (kbar)     P=   -0.00
   0.00000012   0.00000000   0.00000000          0.02      0.00      0.00
  -0.00000000  -0.00000010   0.00000000         -0.00     -0.01      0.00
   0.00000000  -0.00000000  -0.00000010          0.00     -0.00     -0.01


     bfgs converged in  15 scf cycles and  14 bfgs steps
     (criteria: energy <  1.0E-10 Ry, force <  1.0E-05Ry/Bohr, cell <  1.0E-03kbar)

     End of BFGS Geometry Optimization

     Final enthalpy =    -588.3809064614 Ry
Begin final coordinates
     new unit-cell volume =    604.22781 a.u.^3 (    89.53732 Ang^3 )
     density =      7.77981 g/cm^3

CELL_PARAMETERS (alat=  1.88972599)
  -1.652992180  -4.937111753  -1.645703918
  -1.652992180   4.937111753   1.645703918
   1.652992180   1.645703918  -4.937111753

ATOMIC_POSITIONS (angstrom)
Ti      -1.652992180   1.645703918  -4.937111753
Nb      -1.652992180   1.656194183  -1.697247488
Nb      -1.652992180  -1.697247488  -1.656194183
Nb       0.000000000   3.342951406  -3.280917570
Nb       0.000000000  -0.010490265  -3.239864265
End final coordinates



     A final scf calculation at the relaxed structure.
     The G-vectors are recalculated for the final unit cell
     Results may differ from those at the preceding step.
 
     Parallelization info
     --------------------
     sticks:   dense  smooth     PW     G-vecs:    dense   smooth      PW
     Min         611     245     83                28525     7208    1442
     Max         613     246     84                28526     7209    1446
     Sum        2447     983    333               114103    28835    5773
 


     bravais-lattice index     =            0
     lattice parameter (alat)  =       1.8897  a.u.
     unit-cell volume          =     604.2278 (a.u.)^3
     number of atoms/cell      =            5
     number of atomic types    =            2
     number of electrons       =        64.00
     number of Kohn-Sham states=           38
     kinetic-energy cutoff     =      50.0000  Ry
     charge density cutoff     =     500.0000  Ry
     convergence threshold     =      1.0E-12
     mixing beta               =       0.6000
     number of iterations used =            8  plain     mixing
     Exchange-correlation      = SLA PW PBE PBE ( 1  4  3  4 0 0)

     celldm(1)=   1.889726  celldm(2)=   0.000000  celldm(3)=   0.000000
     celldm(4)=   0.000000  celldm(5)=   0.000000  celldm(6)=   0.000000

     crystal axes: (cart. coord. in units of alat)
               a(1) = (  -1.652992  -4.937112  -1.645704 )  
               a(2) = (  -1.652992   4.937112   1.645704 )  
               a(3) = (   1.652992   1.645704  -4.937112 )  

     reciprocal axes: (cart. coord. in units 2 pi/alat)
               b(1) = ( -0.302482 -0.060764 -0.121529 )  
               b(2) = ( -0.302482  0.121529 -0.060764 )  
               b(3) = (  0.000000  0.060764 -0.182293 )  


     PseudoPot. # 1 for Nb read from file:
     ./Nb.pbe-nsp-van.UPF
     MD5 check sum: 0a22fc7fb0ba19a08ca5db297a5d2854
     Pseudo is Ultrasoft + core correction, Zval = 13.0
     Generated by new atomic code, or converted to UPF format
     Using radial grid of  887 points,  6 beta functions with: 
                l(1) =   0
                l(2) =   0
                l(3) =   1
                l(4) =   1
                l(5) =   2
                l(6) =   2
     Q(r) pseudized with  6 coefficients,  rinner =    1.000   1.000   1.000
                                                       1.000   1.000

     PseudoPot. # 2 for Ti read from file:
     ./Ti.pbe-sp-van_ak.UPF
     MD5 check sum: f98fea3e8887528921fefa5636a534ca
     Pseudo is Ultrasoft, Zval = 12.0
     Generated by new atomic code, or converted to UPF format
     Using radial grid of  851 points,  6 beta functions with: 
                l(1) =   0
                l(2) =   0
                l(3) =   1
                l(4) =   1
                l(5) =   2
                l(6) =   2
     Q(r) pseudized with  8 coefficients,  rinner =    1.000   1.000   1.000
                                                       1.000   1.000

     atomic species   valence    mass     pseudopotential
        Nb            13.00    92.90638     Nb( 1.00)
        Ti            12.00    47.86700     Ti( 1.00)

      8 Sym. Ops., with inversion, found



   Cartesian axes

     site n.     atom                  positions (alat units)
         1           Ti  tau(   1) = (  -1.6529923   1.6457040  -4.9371121  )
         2           Nb  tau(   2) = (  -1.6529923   1.6561943  -1.6972476  )
         3           Nb  tau(   3) = (  -1.6529923  -1.6972476  -1.6561943  )
         4           Nb  tau(   4) = (   0.0000000   3.3429517  -3.2809178  )
         5           Nb  tau(   5) = (   0.0000000  -0.0104903  -3.2398645  )

     number of k points=   242  Marzari-Vanderbilt smearing, width (Ry)=  0.0200

     Number of k-points >= 100: set verbosity='high' to print them.

     Dense  grid:   114103 G-vectors     FFT dimensions: (  75,  75,  75)

     Smooth grid:    28835 G-vectors     FFT dimensions: (  48,  48,  48)

     Estimated max dynamical RAM per process >     238.28 MB

     Estimated total dynamical RAM >     953.13 MB

     Initial potential from superposition of free atoms

     starting charge   62.98902, renormalised to   64.00000
     Starting wfcs are   62 randomized atomic wfcs

     total cpu time spent up to now is     8278.6 secs

     Self-consistent Calculation

     iteration #  1     ecut=    50.00 Ry     beta= 0.60
     Davidson diagonalization with overlap
     ethr =  1.00E-06,  avg # of iterations = 10.9

     total cpu time spent up to now is     8346.2 secs

     total energy              =    -570.02928470 Ry
     Harris-Foulkes estimate   =    -590.36569661 Ry
     estimated scf accuracy    <      25.41107559 Ry

     iteration #  2     ecut=    50.00 Ry     beta= 0.60
     Davidson diagonalization with overlap
     ethr =  1.00E-02,  avg # of iterations =  5.8

     total cpu time spent up to now is     8388.0 secs

     total energy              =    -578.13993439 Ry
     Harris-Foulkes estimate   =    -616.44125683 Ry
     estimated scf accuracy    <     115.99951361 Ry

     iteration #  3     ecut=    50.00 Ry     beta= 0.60
     Davidson diagonalization with overlap
     ethr =  1.00E-02,  avg # of iterations =  5.1

     total cpu time spent up to now is     8422.7 secs

     total energy              =    -589.27868621 Ry
     Harris-Foulkes estimate   =    -590.45759186 Ry
     estimated scf accuracy    <       6.99432200 Ry

     iteration #  4     ecut=    50.00 Ry     beta= 0.60
     Davidson diagonalization with overlap
     ethr =  1.00E-02,  avg # of iterations =  1.0

     total cpu time spent up to now is     8442.6 secs

     total energy              =    -588.19812483 Ry
     Harris-Foulkes estimate   =    -589.35441557 Ry
     estimated scf accuracy    <       4.53214185 Ry

     iteration #  5     ecut=    50.00 Ry     beta= 0.60
     Davidson diagonalization with overlap
     ethr =  7.08E-03,  avg # of iterations =  2.5

     total cpu time spent up to now is     8464.6 secs

     total energy              =    -588.46019008 Ry
     Harris-Foulkes estimate   =    -588.45839881 Ry
     estimated scf accuracy    <       0.83124378 Ry

     iteration #  6     ecut=    50.00 Ry     beta= 0.60
     Davidson diagonalization with overlap
     ethr =  1.30E-03,  avg # of iterations =  2.2

     total cpu time spent up to now is     8486.3 secs

     total energy              =    -588.34386849 Ry
     Harris-Foulkes estimate   =    -588.48182403 Ry
     estimated scf accuracy    <       0.80945647 Ry

     iteration #  7     ecut=    50.00 Ry     beta= 0.60
     Davidson diagonalization with overlap
     ethr =  1.26E-03,  avg # of iterations =  1.7

     total cpu time spent up to now is     8506.8 secs

     total energy              =    -588.27196897 Ry
     Harris-Foulkes estimate   =    -588.36894860 Ry
     estimated scf accuracy    <       0.32232920 Ry

     iteration #  8     ecut=    50.00 Ry     beta= 0.60
     Davidson diagonalization with overlap
     ethr =  5.04E-04,  avg # of iterations =  4.6

     total cpu time spent up to now is     8539.9 secs

     total energy              =    -588.30528481 Ry
     Harris-Foulkes estimate   =    -588.45457336 Ry
     estimated scf accuracy    <       1.42681700 Ry

     iteration #  9     ecut=    50.00 Ry     beta= 0.60
     Davidson diagonalization with overlap
     ethr =  5.04E-04,  avg # of iterations =  3.8

     total cpu time spent up to now is     8563.1 secs

     total energy              =    -588.38226354 Ry
     Harris-Foulkes estimate   =    -588.37770447 Ry
     estimated scf accuracy    <       0.01080962 Ry

     iteration # 10     ecut=    50.00 Ry     beta= 0.60
     Davidson diagonalization with overlap
     ethr =  1.69E-05,  avg # of iterations =  5.5

     total cpu time spent up to now is     8598.3 secs

     total energy              =    -588.34521509 Ry
     Harris-Foulkes estimate   =    -588.39458328 Ry
     estimated scf accuracy    <       0.23341666 Ry

     iteration # 11     ecut=    50.00 Ry     beta= 0.60
     Davidson diagonalization with overlap
     ethr =  1.69E-05,  avg # of iterations =  7.4

     total cpu time spent up to now is     8639.2 secs

     total energy              =    -588.38328748 Ry
     Harris-Foulkes estimate   =    -588.38924869 Ry
     estimated scf accuracy    <       0.10288929 Ry

     iteration # 12     ecut=    50.00 Ry     beta= 0.60
     Davidson diagonalization with overlap
     ethr =  1.69E-05,  avg # of iterations =  1.6

     total cpu time spent up to now is     8659.6 secs

     total energy              =    -588.37819050 Ry
     Harris-Foulkes estimate   =    -588.38387714 Ry
     estimated scf accuracy    <       0.05984294 Ry

     iteration # 13     ecut=    50.00 Ry     beta= 0.60
     Davidson diagonalization with overlap
     ethr =  1.69E-05,  avg # of iterations =  5.1

     total cpu time spent up to now is     8688.9 secs

     total energy              =    -588.38096899 Ry
     Harris-Foulkes estimate   =    -588.38066265 Ry
     estimated scf accuracy    <       0.00484596 Ry

     iteration # 14     ecut=    50.00 Ry     beta= 0.60
     Davidson diagonalization with overlap
     ethr =  7.57E-06,  avg # of iterations =  1.1

     total cpu time spent up to now is     8708.8 secs

     total energy              =    -588.37966144 Ry
     Harris-Foulkes estimate   =    -588.38103012 Ry
     estimated scf accuracy    <       0.00837169 Ry

     iteration # 15     ecut=    50.00 Ry     beta= 0.60
     Davidson diagonalization with overlap
     ethr =  7.57E-06,  avg # of iterations =  2.1

     total cpu time spent up to now is     8729.8 secs

     total energy              =    -588.38018353 Ry
     Harris-Foulkes estimate   =    -588.38017554 Ry
     estimated scf accuracy    <       0.00015841 Ry

     iteration # 16     ecut=    50.00 Ry     beta= 0.60
     Davidson diagonalization with overlap
     ethr =  2.48E-07,  avg # of iterations =  5.8

     total cpu time spent up to now is     8763.4 secs

     total energy              =    -588.38027378 Ry
     Harris-Foulkes estimate   =    -588.38027440 Ry
     estimated scf accuracy    <       0.00000212 Ry

     iteration # 17     ecut=    50.00 Ry     beta= 0.60
     Davidson diagonalization with overlap
     ethr =  3.31E-09,  avg # of iterations =  4.3

     total cpu time spent up to now is     8791.7 secs

     total energy              =    -588.38027402 Ry
     Harris-Foulkes estimate   =    -588.38027483 Ry
     estimated scf accuracy    <       0.00000594 Ry

     iteration # 18     ecut=    50.00 Ry     beta= 0.60
     Davidson diagonalization with overlap
     ethr =  3.31E-09,  avg # of iterations =  3.7

     total cpu time spent up to now is     8815.0 secs

     total energy              =    -588.38027435 Ry
     Harris-Foulkes estimate   =    -588.38027434 Ry
     estimated scf accuracy    <       0.00000013 Ry

     iteration # 19     ecut=    50.00 Ry     beta= 0.60
     Davidson diagonalization with overlap
     ethr =  2.07E-10,  avg # of iterations =  4.0

     total cpu time spent up to now is     8841.8 secs

     total energy              =    -588.38027438 Ry
     Harris-Foulkes estimate   =    -588.38027439 Ry
     estimated scf accuracy    <       0.00000012 Ry

     iteration # 20     ecut=    50.00 Ry     beta= 0.60
     Davidson diagonalization with overlap
     ethr =  1.80E-10,  avg # of iterations =  1.0

     total cpu time spent up to now is     8861.6 secs

     total energy              =    -588.38027438 Ry
     Harris-Foulkes estimate   =    -588.38027438 Ry
     estimated scf accuracy    <       0.00000003 Ry

     iteration # 21     ecut=    50.00 Ry     beta= 0.60
     Davidson diagonalization with overlap
     ethr =  4.18E-11,  avg # of iterations =  4.0

     total cpu time spent up to now is     8887.1 secs

     total energy              =    -588.38027438 Ry
     Harris-Foulkes estimate   =    -588.38027438 Ry
     estimated scf accuracy    <          1.6E-10 Ry

     iteration # 22     ecut=    50.00 Ry     beta= 0.60
     Davidson diagonalization with overlap
     ethr =  2.52E-13,  avg # of iterations =  4.5

     total cpu time spent up to now is     8917.3 secs

     total energy              =    -588.38027438 Ry
     Harris-Foulkes estimate   =    -588.38027438 Ry
     estimated scf accuracy    <          5.5E-11 Ry

     iteration # 23     ecut=    50.00 Ry     beta= 0.60
     Davidson diagonalization with overlap
     ethr =  1.00E-13,  avg # of iterations =  2.1

     total cpu time spent up to now is     8938.2 secs

     total energy              =    -588.38027438 Ry
     Harris-Foulkes estimate   =    -588.38027438 Ry
     estimated scf accuracy    <          2.6E-12 Ry

     iteration # 24     ecut=    50.00 Ry     beta= 0.60
     Davidson diagonalization with overlap
     ethr =  1.00E-13,  avg # of iterations =  1.0

     total cpu time spent up to now is     8957.9 secs

     total energy              =    -588.38027438 Ry
     Harris-Foulkes estimate   =    -588.38027438 Ry
     estimated scf accuracy    <          6.1E-12 Ry

     iteration # 25     ecut=    50.00 Ry     beta= 0.60
     Davidson diagonalization with overlap
     ethr =  1.00E-13,  avg # of iterations =  1.0

     total cpu time spent up to now is     8977.7 secs

     End of self-consistent calculation

     Number of k-points >= 100: set verbosity='high' to print the bands.

     the Fermi energy is    17.0184 ev

!    total energy              =    -588.38027438 Ry
     Harris-Foulkes estimate   =    -588.38027438 Ry
     estimated scf accuracy    <          3.0E-13 Ry

     The total energy is the sum of the following terms:

     one-electron contribution =    -106.04768463 Ry
     hartree contribution      =      84.51259726 Ry
     xc contribution           =     -88.30519327 Ry
     ewald contribution        =    -478.53939163 Ry
     smearing contrib. (-TS)   =      -0.00060210 Ry

     convergence has been achieved in  25 iterations

     Forces acting on atoms (cartesian axes, Ry/au):

     atom    1 type  2   force =     0.00000000    0.00000000   -0.00000000
     atom    2 type  1   force =     0.00000000    0.00001432   -0.00000706
     atom    3 type  1   force =     0.00000000   -0.00000706   -0.00001432
     atom    4 type  1   force =    -0.00000000    0.00000706    0.00001432
     atom    5 type  1   force =    -0.00000000   -0.00001432    0.00000706

     Total force =     0.000032     Total SCF correction =     0.000001


     Computing stress (Cartesian axis) and pressure

          total   stress  (Ry/bohr**3)                   (kbar)     P=   -1.44
  -0.00000958  -0.00000000   0.00000000         -1.41     -0.00      0.00
  -0.00000000  -0.00000986   0.00000000         -0.00     -1.45      0.00
   0.00000000  -0.00000000  -0.00000986          0.00     -0.00     -1.45

 
     init_run     :     28.95s CPU     29.79s WALL (       2 calls)
     electrons    :   8587.27s CPU   8737.88s WALL (      16 calls)
     update_pot   :     24.38s CPU     24.46s WALL (      14 calls)
     forces       :     47.36s CPU     49.14s WALL (      16 calls)
     stress       :    133.22s CPU    138.46s WALL (      16 calls)

     Called by init_run:
     wfcinit      :     26.73s CPU     27.33s WALL (       2 calls)
     potinit      :      0.67s CPU      0.69s WALL (       2 calls)
     hinit0       :      1.23s CPU      1.25s WALL (       2 calls)

     Called by electrons:
     c_bands      :   7249.47s CPU   7331.32s WALL (     266 calls)
     sum_band     :   1276.08s CPU   1315.69s WALL (     266 calls)
     v_of_rho     :     16.64s CPU     16.87s WALL (     275 calls)
     newd         :     45.86s CPU     74.56s WALL (     275 calls)
     mix_rho      :      1.69s CPU      1.70s WALL (     266 calls)

     Called by c_bands:
     init_us_2    :     93.37s CPU     94.27s WALL (  136972 calls)
     cegterg      :   6706.09s CPU   6779.07s WALL (   64372 calls)

     Called by sum_band:
     sum_band:bec :      1.74s CPU      1.92s WALL (   64372 calls)
     addusdens    :     54.22s CPU     79.79s WALL (     266 calls)

     Called by *egterg:
     h_psi        :   5108.68s CPU   5176.21s WALL (  281398 calls)
     s_psi        :    167.14s CPU    167.96s WALL (  281398 calls)
     g_psi        :     34.75s CPU     34.79s WALL (  216542 calls)
     cdiaghg      :    803.56s CPU    805.02s WALL (  275832 calls)

     Called by h_psi:
     h_psi:pot    :   5096.87s CPU   5163.95s WALL (  281398 calls)
     h_psi:calbec :    178.59s CPU    179.45s WALL (  281398 calls)
     vloc_psi     :   4749.83s CPU   4814.55s WALL (  281398 calls)
     add_vuspsi   :    167.38s CPU    168.46s WALL (  281398 calls)

     General routines
     calbec       :    261.05s CPU    262.02s WALL (  365130 calls)
     fft          :      9.04s CPU      9.12s WALL (    3980 calls)
     ffts         :      0.30s CPU      0.33s WALL (     541 calls)
     fftw         :   5220.51s CPU   5285.94s WALL (15180460 calls)
     interpolate  :      0.86s CPU      0.86s WALL (     275 calls)
 
     Parallel routines
     fft_scatt_xy :   1044.95s CPU   1056.64s WALL (15184981 calls)
     fft_scatt_yz :    867.24s CPU    875.27s WALL (15184981 calls)
 
     PWSCF        :     2h27m CPU       27h 2m WALL

      29h
 
   This run was terminated on:  22:37:41  24Feb2020            

=------------------------------------------------------------------------------=
   JOB DONE.
=------------------------------------------------------------------------------=
