
     Program PWSCF v.6.3MaX starts on  4Feb2020 at  9:25:59 

     This program is part of the open-source Quantum ESPRESSO suite
     for quantum simulation of materials; please cite
         "P. Giannozzi et al., J. Phys.:Condens. Matter 21 395502 (2009);
         "P. Giannozzi et al., J. Phys.:Condens. Matter 29 465901 (2017);
          URL http://www.quantum-espresso.org", 
     in publications or presentations arising from this work. More details at
     http://www.quantum-espresso.org/quote

     Parallel version (MPI), running on     4 processors

     MPI processes distributed on     1 nodes
     R & G space division:  proc/nbgrp/npool/nimage =       4
     Waiting for input...
     Reading input from standard input

     Current dimensions of program PWSCF are:
     Max number of different atomic species (ntypx) = 10
     Max number of k-points (npk) =  40000
     Max angular momentum in pseudopotentials (lmaxx) =  3
     Message from routine iosys:
     minimal I/O required, wf_collect reset to FALSE

     Subspace diagonalization in iterative solution of the eigenvalue problem:
     a serial algorithm will be used

 
     Parallelization info
     --------------------
     sticks:   dense  smooth     PW     G-vecs:    dense   smooth      PW
     Min         880     351    105                27695     7001    1149
     Max         881     352    106                27696     7004    1150
     Sum        3521    1405    421               110783    28009    4597
 


     bravais-lattice index     =            0
     lattice parameter (alat)  =       1.8897  a.u.
     unit-cell volume          =     586.6735 (a.u.)^3
     number of atoms/cell      =            4
     number of atomic types    =            2
     number of electrons       =        49.00
     number of Kohn-Sham states=           30
     kinetic-energy cutoff     =      50.0000  Ry
     charge density cutoff     =     500.0000  Ry
     convergence threshold     =      1.0E-10
     mixing beta               =       0.6000
     number of iterations used =            8  plain     mixing
     Exchange-correlation      = SLA PW PBE PBE ( 1  4  3  4 0 0)
     nstep                     =           50


     celldm(1)=   1.889726  celldm(2)=   0.000000  celldm(3)=   0.000000
     celldm(4)=   0.000000  celldm(5)=   0.000000  celldm(6)=   0.000000

     crystal axes: (cart. coord. in units of alat)
               a(1) = (   0.000000  -3.516063   3.516063 )  
               a(2) = (   0.000000   3.516063   3.516063 )  
               a(3) = (  -3.516063   0.000000   0.000000 )  

     reciprocal axes: (cart. coord. in units 2 pi/alat)
               b(1) = (  0.000000 -0.142205  0.142205 )  
               b(2) = (  0.000000  0.142205  0.142205 )  
               b(3) = ( -0.284409  0.000000  0.000000 )  


     PseudoPot. # 1 for Nb read from file:
     ./Nb.pbe-nsp-van.UPF
     MD5 check sum: 0a22fc7fb0ba19a08ca5db297a5d2854
     Pseudo is Ultrasoft + core correction, Zval = 13.0
     Generated by new atomic code, or converted to UPF format
     Using radial grid of  887 points,  6 beta functions with: 
                l(1) =   0
                l(2) =   0
                l(3) =   1
                l(4) =   1
                l(5) =   2
                l(6) =   2
     Q(r) pseudized with  6 coefficients,  rinner =    1.000   1.000   1.000
                                                       1.000   1.000

     PseudoPot. # 2 for Ti read from file:
     ./Ti.pbe-sp-van_ak.UPF
     MD5 check sum: f98fea3e8887528921fefa5636a534ca
     Pseudo is Ultrasoft, Zval = 12.0
     Generated by new atomic code, or converted to UPF format
     Using radial grid of  851 points,  6 beta functions with: 
                l(1) =   0
                l(2) =   0
                l(3) =   1
                l(4) =   1
                l(5) =   2
                l(6) =   2
     Q(r) pseudized with  8 coefficients,  rinner =    1.000   1.000   1.000
                                                       1.000   1.000

     atomic species   valence    mass     pseudopotential
        Nb            13.00    92.90638     Nb( 1.00)
        Ti            12.00    47.86700     Ti( 1.00)

     16 Sym. Ops., with inversion, found ( 8 have fractional translation)



   Cartesian axes

     site n.     atom                  positions (alat units)
         1           Ti  tau(   1) = (  -3.5160633   0.0000000   3.5160633  )
         2           Ti  tau(   2) = (  -1.7580316  -1.7580316   5.2740949  )
         3           Ti  tau(   3) = (  -3.5160633   0.0000000   7.0321265  )
         4           Nb  tau(   4) = (  -1.7580316   1.7580316   5.2740949  )

     number of k points=   252  Marzari-Vanderbilt smearing, width (Ry)=  0.0200

     Number of k-points >= 100: set verbosity='high' to print them.

     Dense  grid:   110783 G-vectors     FFT dimensions: (  72,  72,  48)

     Smooth grid:    28009 G-vectors     FFT dimensions: (  45,  45,  30)

     Estimated max dynamical RAM per process >     205.89 MB

     Estimated total dynamical RAM >     823.54 MB

     Initial potential from superposition of free atoms

     starting charge   45.99713, renormalised to   49.00000
     Starting wfcs are   43 randomized atomic wfcs

     total cpu time spent up to now is        8.2 secs

     Self-consistent Calculation

     iteration #  1     ecut=    50.00 Ry     beta= 0.60
     Davidson diagonalization with overlap
     ethr =  1.00E-02,  avg # of iterations =  3.8

     total cpu time spent up to now is       26.4 secs

     total energy              =    -463.54264972 Ry
     Harris-Foulkes estimate   =    -469.19516179 Ry
     estimated scf accuracy    <       7.30930755 Ry

     iteration #  2     ecut=    50.00 Ry     beta= 0.60
     Davidson diagonalization with overlap
     ethr =  1.00E-02,  avg # of iterations =  5.1

     total cpu time spent up to now is       49.6 secs

     total energy              =    -464.67124288 Ry
     Harris-Foulkes estimate   =    -476.19396795 Ry
     estimated scf accuracy    <      37.29165449 Ry

     iteration #  3     ecut=    50.00 Ry     beta= 0.60
     Davidson diagonalization with overlap
     ethr =  1.00E-02,  avg # of iterations =  4.9

     total cpu time spent up to now is       67.9 secs

     total energy              =    -467.30155548 Ry
     Harris-Foulkes estimate   =    -469.41388872 Ry
     estimated scf accuracy    <      14.36967164 Ry

     iteration #  4     ecut=    50.00 Ry     beta= 0.60
     Davidson diagonalization with overlap
     ethr =  1.00E-02,  avg # of iterations =  2.3

     total cpu time spent up to now is       81.0 secs

     total energy              =    -468.47711226 Ry
     Harris-Foulkes estimate   =    -467.90302817 Ry
     estimated scf accuracy    <       3.04161789 Ry

     iteration #  5     ecut=    50.00 Ry     beta= 0.60
     Davidson diagonalization with overlap
     ethr =  6.21E-03,  avg # of iterations =  1.3

     total cpu time spent up to now is       93.2 secs

     total energy              =    -466.76224884 Ry
     Harris-Foulkes estimate   =    -468.54799612 Ry
     estimated scf accuracy    <       4.10751713 Ry

     iteration #  6     ecut=    50.00 Ry     beta= 0.60
     Davidson diagonalization with overlap
     ethr =  6.21E-03,  avg # of iterations =  6.2

     total cpu time spent up to now is      115.9 secs

     total energy              =    -467.27650892 Ry
     Harris-Foulkes estimate   =    -469.17596250 Ry
     estimated scf accuracy    <      26.25396864 Ry

     iteration #  7     ecut=    50.00 Ry     beta= 0.60
     Davidson diagonalization with overlap
     ethr =  6.21E-03,  avg # of iterations =  1.5

     total cpu time spent up to now is      128.3 secs

     total energy              =    -467.85837522 Ry
     Harris-Foulkes estimate   =    -467.79051336 Ry
     estimated scf accuracy    <       1.50518604 Ry

     iteration #  8     ecut=    50.00 Ry     beta= 0.60
     Davidson diagonalization with overlap
     ethr =  3.07E-03,  avg # of iterations =  1.8

     total cpu time spent up to now is      140.9 secs

     total energy              =    -467.69681776 Ry
     Harris-Foulkes estimate   =    -467.92213321 Ry
     estimated scf accuracy    <       5.73089009 Ry

     iteration #  9     ecut=    50.00 Ry     beta= 0.60
     Davidson diagonalization with overlap
     ethr =  3.07E-03,  avg # of iterations =  1.8

     total cpu time spent up to now is      153.5 secs

     total energy              =    -467.67266914 Ry
     Harris-Foulkes estimate   =    -467.78723432 Ry
     estimated scf accuracy    <       0.70237929 Ry

     iteration # 10     ecut=    50.00 Ry     beta= 0.60
     Davidson diagonalization with overlap
     ethr =  1.43E-03,  avg # of iterations =  5.5

     total cpu time spent up to now is      170.0 secs

     total energy              =    -467.77751099 Ry
     Harris-Foulkes estimate   =    -467.80152784 Ry
     estimated scf accuracy    <       0.37588466 Ry

     iteration # 11     ecut=    50.00 Ry     beta= 0.60
     Davidson diagonalization with overlap
     ethr =  7.67E-04,  avg # of iterations =  1.6

     total cpu time spent up to now is      182.4 secs

     total energy              =    -467.78013733 Ry
     Harris-Foulkes estimate   =    -467.78543115 Ry
     estimated scf accuracy    <       0.15703755 Ry

     iteration # 12     ecut=    50.00 Ry     beta= 0.60
     Davidson diagonalization with overlap
     ethr =  3.20E-04,  avg # of iterations =  2.3

     total cpu time spent up to now is      195.3 secs

     total energy              =    -467.77984693 Ry
     Harris-Foulkes estimate   =    -467.78263535 Ry
     estimated scf accuracy    <       0.08465732 Ry

     iteration # 13     ecut=    50.00 Ry     beta= 0.60
     Davidson diagonalization with overlap
     c_bands:  1 eigenvalues not converged
     ethr =  1.73E-04,  avg # of iterations =  4.4

     total cpu time spent up to now is      210.1 secs

     total energy              =    -467.78922868 Ry
     Harris-Foulkes estimate   =    -467.78167682 Ry
     estimated scf accuracy    <       0.05264636 Ry

     iteration # 14     ecut=    50.00 Ry     beta= 0.60
     Davidson diagonalization with overlap
     ethr =  1.07E-04,  avg # of iterations =  6.9

     total cpu time spent up to now is      230.6 secs

     total energy              =    -467.79338346 Ry
     Harris-Foulkes estimate   =    -467.80385502 Ry
     estimated scf accuracy    <       0.30267821 Ry

     iteration # 15     ecut=    50.00 Ry     beta= 0.60
     Davidson diagonalization with overlap
     ethr =  1.07E-04,  avg # of iterations =  3.3

     total cpu time spent up to now is      244.6 secs

     total energy              =    -467.79605994 Ry
     Harris-Foulkes estimate   =    -467.79867809 Ry
     estimated scf accuracy    <       0.31980833 Ry

     iteration # 16     ecut=    50.00 Ry     beta= 0.60
     Davidson diagonalization with overlap
     ethr =  1.07E-04,  avg # of iterations =  1.4

     total cpu time spent up to now is      256.9 secs

     total energy              =    -467.78076316 Ry
     Harris-Foulkes estimate   =    -467.79841621 Ry
     estimated scf accuracy    <       0.26397160 Ry

     iteration # 17     ecut=    50.00 Ry     beta= 0.60
     Davidson diagonalization with overlap
     ethr =  1.07E-04,  avg # of iterations =  3.4

     total cpu time spent up to now is      271.2 secs

     total energy              =    -467.78845340 Ry
     Harris-Foulkes estimate   =    -467.78551619 Ry
     estimated scf accuracy    <       0.09207356 Ry

     iteration # 18     ecut=    50.00 Ry     beta= 0.60
     Davidson diagonalization with overlap
     ethr =  1.07E-04,  avg # of iterations =  1.1

     total cpu time spent up to now is      283.2 secs

     total energy              =    -467.75715786 Ry
     Harris-Foulkes estimate   =    -467.78913819 Ry
     estimated scf accuracy    <       0.10365231 Ry

     iteration # 19     ecut=    50.00 Ry     beta= 0.60
     Davidson diagonalization with overlap
     ethr =  1.07E-04,  avg # of iterations =  6.1

     total cpu time spent up to now is      305.8 secs

     total energy              =    -467.75537960 Ry
     Harris-Foulkes estimate   =    -467.80025807 Ry
     estimated scf accuracy    <       0.31694737 Ry

     iteration # 20     ecut=    50.00 Ry     beta= 0.60
     Davidson diagonalization with overlap
     ethr =  1.07E-04,  avg # of iterations =  5.5

     total cpu time spent up to now is      324.8 secs

     total energy              =    -467.78197208 Ry
     Harris-Foulkes estimate   =    -467.78127316 Ry
     estimated scf accuracy    <       0.00856732 Ry

     iteration # 21     ecut=    50.00 Ry     beta= 0.60
     Davidson diagonalization with overlap
     ethr =  1.75E-05,  avg # of iterations =  5.5

     total cpu time spent up to now is      341.8 secs

     total energy              =    -467.77931940 Ry
     Harris-Foulkes estimate   =    -467.78252619 Ry
     estimated scf accuracy    <       0.01781918 Ry

     iteration # 22     ecut=    50.00 Ry     beta= 0.60
     Davidson diagonalization with overlap
     ethr =  1.75E-05,  avg # of iterations =  3.8

     total cpu time spent up to now is      356.4 secs

     total energy              =    -467.77998473 Ry
     Harris-Foulkes estimate   =    -467.78040727 Ry
     estimated scf accuracy    <       0.00173692 Ry

     iteration # 23     ecut=    50.00 Ry     beta= 0.60
     Davidson diagonalization with overlap
     c_bands:  2 eigenvalues not converged
     ethr =  3.54E-06,  avg # of iterations =  5.5

     total cpu time spent up to now is      377.2 secs

     total energy              =    -467.78035637 Ry
     Harris-Foulkes estimate   =    -467.78093672 Ry
     estimated scf accuracy    <       0.00440492 Ry

     iteration # 24     ecut=    50.00 Ry     beta= 0.60
     Davidson diagonalization with overlap
     ethr =  3.54E-06,  avg # of iterations =  3.7

     total cpu time spent up to now is      391.8 secs

     total energy              =    -467.78053836 Ry
     Harris-Foulkes estimate   =    -467.78054512 Ry
     estimated scf accuracy    <       0.00046452 Ry

     iteration # 25     ecut=    50.00 Ry     beta= 0.60
     Davidson diagonalization with overlap
     ethr =  9.48E-07,  avg # of iterations =  4.4

     total cpu time spent up to now is      407.8 secs

     total energy              =    -467.78057474 Ry
     Harris-Foulkes estimate   =    -467.78060165 Ry
     estimated scf accuracy    <       0.00011201 Ry

     iteration # 26     ecut=    50.00 Ry     beta= 0.60
     Davidson diagonalization with overlap
     ethr =  2.29E-07,  avg # of iterations =  5.2

     total cpu time spent up to now is      426.6 secs

     total energy              =    -467.78060184 Ry
     Harris-Foulkes estimate   =    -467.78060826 Ry
     estimated scf accuracy    <       0.00010211 Ry

     iteration # 27     ecut=    50.00 Ry     beta= 0.60
     Davidson diagonalization with overlap
     ethr =  2.08E-07,  avg # of iterations =  1.0

     total cpu time spent up to now is      438.7 secs

     total energy              =    -467.78059496 Ry
     Harris-Foulkes estimate   =    -467.78060276 Ry
     estimated scf accuracy    <       0.00006193 Ry

     iteration # 28     ecut=    50.00 Ry     beta= 0.60
     Davidson diagonalization with overlap
     ethr =  1.26E-07,  avg # of iterations =  2.8

     total cpu time spent up to now is      453.0 secs

     total energy              =    -467.78059991 Ry
     Harris-Foulkes estimate   =    -467.78060002 Ry
     estimated scf accuracy    <       0.00000072 Ry

     iteration # 29     ecut=    50.00 Ry     beta= 0.60
     Davidson diagonalization with overlap
     ethr =  1.46E-09,  avg # of iterations =  6.2

     total cpu time spent up to now is      475.4 secs

     total energy              =    -467.78060043 Ry
     Harris-Foulkes estimate   =    -467.78060086 Ry
     estimated scf accuracy    <       0.00000463 Ry

     iteration # 30     ecut=    50.00 Ry     beta= 0.60
     Davidson diagonalization with overlap
     ethr =  1.46E-09,  avg # of iterations =  3.6

     total cpu time spent up to now is      490.1 secs

     total energy              =    -467.78060031 Ry
     Harris-Foulkes estimate   =    -467.78060052 Ry
     estimated scf accuracy    <       0.00000145 Ry

     iteration # 31     ecut=    50.00 Ry     beta= 0.60
     Davidson diagonalization with overlap
     ethr =  1.46E-09,  avg # of iterations =  4.0

     total cpu time spent up to now is      506.3 secs

     total energy              =    -467.78060048 Ry
     Harris-Foulkes estimate   =    -467.78060048 Ry
     estimated scf accuracy    <          5.1E-09 Ry

     iteration # 32     ecut=    50.00 Ry     beta= 0.60
     Davidson diagonalization with overlap
     ethr =  1.04E-11,  avg # of iterations =  6.6

     total cpu time spent up to now is      528.3 secs

     total energy              =    -467.78060049 Ry
     Harris-Foulkes estimate   =    -467.78060050 Ry
     estimated scf accuracy    <       0.00000006 Ry

     iteration # 33     ecut=    50.00 Ry     beta= 0.60
     Davidson diagonalization with overlap
     ethr =  1.04E-11,  avg # of iterations =  1.1

     total cpu time spent up to now is      540.5 secs

     total energy              =    -467.78060049 Ry
     Harris-Foulkes estimate   =    -467.78060049 Ry
     estimated scf accuracy    <       0.00000004 Ry

     iteration # 34     ecut=    50.00 Ry     beta= 0.60
     Davidson diagonalization with overlap
     ethr =  1.04E-11,  avg # of iterations =  4.7

     total cpu time spent up to now is      559.1 secs

     total energy              =    -467.78060049 Ry
     Harris-Foulkes estimate   =    -467.78060049 Ry
     estimated scf accuracy    <          4.6E-09 Ry

     iteration # 35     ecut=    50.00 Ry     beta= 0.60
     Davidson diagonalization with overlap
     ethr =  9.30E-12,  avg # of iterations =  1.0

     total cpu time spent up to now is      571.2 secs

     total energy              =    -467.78060049 Ry
     Harris-Foulkes estimate   =    -467.78060049 Ry
     estimated scf accuracy    <          4.1E-09 Ry

     iteration # 36     ecut=    50.00 Ry     beta= 0.60
     Davidson diagonalization with overlap
     ethr =  8.31E-12,  avg # of iterations =  1.0

     total cpu time spent up to now is      583.3 secs

     total energy              =    -467.78060049 Ry
     Harris-Foulkes estimate   =    -467.78060049 Ry
     estimated scf accuracy    <          2.1E-09 Ry

     iteration # 37     ecut=    50.00 Ry     beta= 0.60
     Davidson diagonalization with overlap
     ethr =  4.26E-12,  avg # of iterations =  1.0

     total cpu time spent up to now is      595.4 secs

     total energy              =    -467.78060049 Ry
     Harris-Foulkes estimate   =    -467.78060049 Ry
     estimated scf accuracy    <          1.6E-09 Ry

     iteration # 38     ecut=    50.00 Ry     beta= 0.60
     Davidson diagonalization with overlap
     ethr =  3.18E-12,  avg # of iterations =  1.0

     total cpu time spent up to now is      607.5 secs

     total energy              =    -467.78060049 Ry
     Harris-Foulkes estimate   =    -467.78060049 Ry
     estimated scf accuracy    <          1.3E-09 Ry

     iteration # 39     ecut=    50.00 Ry     beta= 0.60
     Davidson diagonalization with overlap
     ethr =  2.75E-12,  avg # of iterations =  2.9

     total cpu time spent up to now is      621.3 secs

     total energy              =    -467.78060049 Ry
     Harris-Foulkes estimate   =    -467.78060049 Ry
     estimated scf accuracy    <          3.9E-10 Ry

     iteration # 40     ecut=    50.00 Ry     beta= 0.60
     Davidson diagonalization with overlap
     ethr =  7.93E-13,  avg # of iterations =  4.3

     total cpu time spent up to now is      637.7 secs

     End of self-consistent calculation

     Number of k-points >= 100: set verbosity='high' to print the bands.

     the Fermi energy is    11.0663 ev

!    total energy              =    -467.78060049 Ry
     Harris-Foulkes estimate   =    -467.78060049 Ry
     estimated scf accuracy    <          3.5E-11 Ry

     The total energy is the sum of the following terms:

     one-electron contribution =    -177.26739032 Ry
     hartree contribution      =      99.81921527 Ry
     xc contribution           =     -61.37699107 Ry
     ewald contribution        =    -328.95375818 Ry
     smearing contrib. (-TS)   =      -0.00167619 Ry

     convergence has been achieved in  40 iterations

     Forces acting on atoms (cartesian axes, Ry/au):

     atom    1 type  2   force =     0.00000000    0.00000000    0.00000000
     atom    2 type  2   force =     0.00000000    0.00000000    0.00000000
     atom    3 type  2   force =     0.00000000    0.00000000    0.00000000
     atom    4 type  1   force =     0.00000000   -0.00000000    0.00000000

     Total force =     0.000000     Total SCF correction =     0.000000


     Computing stress (Cartesian axis) and pressure

          total   stress  (Ry/bohr**3)                   (kbar)     P= -184.61
  -0.00123502   0.00000000   0.00000000       -181.68      0.00      0.00
   0.00000000  -0.00126497   0.00000000          0.00   -186.08      0.00
   0.00000000   0.00000000  -0.00126497          0.00      0.00   -186.08


     BFGS Geometry Optimization

     number of scf cycles    =   1
     number of bfgs steps    =   0

     enthalpy new            =    -467.7806004932 Ry

     new trust radius        =       0.1531960575 bohr
     new conv_thr            =            1.0E-10 Ry

     new unit-cell volume =    533.16784 a.u.^3 (    79.00732 Ang^3 )
     density =      4.97080 g/cm^3

CELL_PARAMETERS (alat=  1.88972599)
   0.000000000  -3.404870365   3.404870365
   0.000000000   3.404870365   3.404870365
  -3.407503231   0.000000000   0.000000000

ATOMIC_POSITIONS (angstrom)
Ti      -3.407503231   0.000000000   3.404870365
Ti      -1.703751615  -1.702435182   5.107305547
Ti      -3.407503231   0.000000000   6.809740730
Nb      -1.703751615   1.702435182   5.107305547


     NEW-OLD atomic charge density approx. for the potential
     extrapolated charge   44.38399, renormalised to   49.00000

     total cpu time spent up to now is      646.9 secs

     Self-consistent Calculation

     iteration #  1     ecut=    50.00 Ry     beta= 0.60
     Davidson diagonalization with overlap
     c_bands:  1 eigenvalues not converged
     c_bands:  1 eigenvalues not converged
     c_bands:  1 eigenvalues not converged
     c_bands:  1 eigenvalues not converged
     c_bands:  1 eigenvalues not converged
     c_bands:  1 eigenvalues not converged
     c_bands:  1 eigenvalues not converged
     c_bands:  2 eigenvalues not converged
     c_bands:  2 eigenvalues not converged
     c_bands:  1 eigenvalues not converged
     ethr =  1.00E-06,  avg # of iterations = 14.4

     total cpu time spent up to now is      696.1 secs

     total energy              =    -455.49630682 Ry
     Harris-Foulkes estimate   =    -479.99666635 Ry
     estimated scf accuracy    <      13.15630755 Ry

     iteration #  2     ecut=    50.00 Ry     beta= 0.60
     Davidson diagonalization with overlap
     ethr =  1.00E-02,  avg # of iterations =  5.4

     total cpu time spent up to now is      721.4 secs

     total energy              =    -466.30493982 Ry
     Harris-Foulkes estimate   =    -483.95962830 Ry
     estimated scf accuracy    <      54.48346699 Ry

     iteration #  3     ecut=    50.00 Ry     beta= 0.60
     Davidson diagonalization with overlap
     ethr =  1.00E-02,  avg # of iterations =  4.3

     total cpu time spent up to now is      741.0 secs

     total energy              =    -468.63773464 Ry
     Harris-Foulkes estimate   =    -470.68796501 Ry
     estimated scf accuracy    <       7.34182817 Ry

     iteration #  4     ecut=    50.00 Ry     beta= 0.60
     Davidson diagonalization with overlap
     ethr =  1.00E-02,  avg # of iterations =  2.2

     total cpu time spent up to now is      754.3 secs

     total energy              =    -468.18289132 Ry
     Harris-Foulkes estimate   =    -469.41118305 Ry
     estimated scf accuracy    <       8.52908342 Ry

     iteration #  5     ecut=    50.00 Ry     beta= 0.60
     Davidson diagonalization with overlap
     ethr =  1.00E-02,  avg # of iterations =  1.0

     total cpu time spent up to now is      766.6 secs

     total energy              =    -468.09255048 Ry
     Harris-Foulkes estimate   =    -468.36527391 Ry
     estimated scf accuracy    <       3.51332025 Ry

     iteration #  6     ecut=    50.00 Ry     beta= 0.60
     Davidson diagonalization with overlap
     ethr =  7.17E-03,  avg # of iterations =  1.0

     total cpu time spent up to now is      778.7 secs

     total energy              =    -467.71517533 Ry
     Harris-Foulkes estimate   =    -468.13970155 Ry
     estimated scf accuracy    <       2.27888103 Ry

     iteration #  7     ecut=    50.00 Ry     beta= 0.60
     Davidson diagonalization with overlap
     ethr =  4.65E-03,  avg # of iterations =  3.3

     total cpu time spent up to now is      793.3 secs

     total energy              =    -467.97893960 Ry
     Harris-Foulkes estimate   =    -467.86971995 Ry
     estimated scf accuracy    <       0.51669578 Ry

     iteration #  8     ecut=    50.00 Ry     beta= 0.60
     Davidson diagonalization with overlap
     ethr =  1.05E-03,  avg # of iterations =  3.5

     total cpu time spent up to now is      807.9 secs

     total energy              =    -467.99352343 Ry
     Harris-Foulkes estimate   =    -468.02044531 Ry
     estimated scf accuracy    <       1.12945566 Ry

     iteration #  9     ecut=    50.00 Ry     beta= 0.60
     Davidson diagonalization with overlap
     ethr =  1.05E-03,  avg # of iterations =  1.1

     total cpu time spent up to now is      820.1 secs

     total energy              =    -467.92478892 Ry
     Harris-Foulkes estimate   =    -467.99744272 Ry
     estimated scf accuracy    <       0.99710157 Ry

     iteration # 10     ecut=    50.00 Ry     beta= 0.60
     Davidson diagonalization with overlap
     ethr =  1.05E-03,  avg # of iterations =  1.1

     total cpu time spent up to now is      832.3 secs

     total energy              =    -467.69387475 Ry
     Harris-Foulkes estimate   =    -467.93123661 Ry
     estimated scf accuracy    <       0.63854922 Ry

     iteration # 11     ecut=    50.00 Ry     beta= 0.60
     Davidson diagonalization with overlap
     ethr =  1.05E-03,  avg # of iterations =  5.6

     total cpu time spent up to now is      851.5 secs

     total energy              =    -467.81638664 Ry
     Harris-Foulkes estimate   =    -467.86170049 Ry
     estimated scf accuracy    <       0.35514846 Ry

     iteration # 12     ecut=    50.00 Ry     beta= 0.60
     Davidson diagonalization with overlap
     ethr =  7.25E-04,  avg # of iterations =  1.8

     total cpu time spent up to now is      864.2 secs

     total energy              =    -467.82432024 Ry
     Harris-Foulkes estimate   =    -467.83166772 Ry
     estimated scf accuracy    <       0.07948223 Ry

     iteration # 13     ecut=    50.00 Ry     beta= 0.60
     Davidson diagonalization with overlap
     ethr =  1.62E-04,  avg # of iterations =  6.1

     total cpu time spent up to now is      884.3 secs

     total energy              =    -467.84018752 Ry
     Harris-Foulkes estimate   =    -467.85460299 Ry
     estimated scf accuracy    <       0.13989091 Ry

     iteration # 14     ecut=    50.00 Ry     beta= 0.60
     Davidson diagonalization with overlap
     ethr =  1.62E-04,  avg # of iterations =  4.6

     total cpu time spent up to now is      900.3 secs

     total energy              =    -467.83711312 Ry
     Harris-Foulkes estimate   =    -467.85726061 Ry
     estimated scf accuracy    <       0.20396948 Ry

     iteration # 15     ecut=    50.00 Ry     beta= 0.60
     Davidson diagonalization with overlap
     ethr =  1.62E-04,  avg # of iterations =  2.4

     total cpu time spent up to now is      913.5 secs

     total energy              =    -467.84093738 Ry
     Harris-Foulkes estimate   =    -467.84269693 Ry
     estimated scf accuracy    <       0.07313697 Ry

     iteration # 16     ecut=    50.00 Ry     beta= 0.60
     Davidson diagonalization with overlap
     ethr =  1.49E-04,  avg # of iterations =  1.0

     total cpu time spent up to now is      925.7 secs

     total energy              =    -467.84064152 Ry
     Harris-Foulkes estimate   =    -467.84169451 Ry
     estimated scf accuracy    <       0.05875017 Ry

     iteration # 17     ecut=    50.00 Ry     beta= 0.60
     Davidson diagonalization with overlap
     ethr =  1.20E-04,  avg # of iterations =  1.0

     total cpu time spent up to now is      937.9 secs

     total energy              =    -467.83862178 Ry
     Harris-Foulkes estimate   =    -467.84105947 Ry
     estimated scf accuracy    <       0.05027479 Ry

     iteration # 18     ecut=    50.00 Ry     beta= 0.60
     Davidson diagonalization with overlap
     ethr =  1.03E-04,  avg # of iterations =  1.1

     total cpu time spent up to now is      950.0 secs

     total energy              =    -467.83559210 Ry
     Harris-Foulkes estimate   =    -467.83924715 Ry
     estimated scf accuracy    <       0.03052660 Ry

     iteration # 19     ecut=    50.00 Ry     beta= 0.60
     Davidson diagonalization with overlap
     ethr =  6.23E-05,  avg # of iterations =  3.7

     total cpu time spent up to now is      964.8 secs

     total energy              =    -467.83782821 Ry
     Harris-Foulkes estimate   =    -467.83789423 Ry
     estimated scf accuracy    <       0.00345654 Ry

     iteration # 20     ecut=    50.00 Ry     beta= 0.60
     Davidson diagonalization with overlap
     c_bands:  2 eigenvalues not converged
     c_bands:  1 eigenvalues not converged
     ethr =  7.05E-06,  avg # of iterations =  7.6

     total cpu time spent up to now is      986.2 secs

     total energy              =    -467.83832373 Ry
     Harris-Foulkes estimate   =    -467.83845624 Ry
     estimated scf accuracy    <       0.00127111 Ry

     iteration # 21     ecut=    50.00 Ry     beta= 0.60
     Davidson diagonalization with overlap
     c_bands:  1 eigenvalues not converged
     ethr =  2.59E-06,  avg # of iterations =  3.1

     total cpu time spent up to now is     1000.1 secs

     total energy              =    -467.83839438 Ry
     Harris-Foulkes estimate   =    -467.83838769 Ry
     estimated scf accuracy    <       0.00040950 Ry

     iteration # 22     ecut=    50.00 Ry     beta= 0.60
     Davidson diagonalization with overlap
     c_bands:  1 eigenvalues not converged
     ethr =  8.36E-07,  avg # of iterations =  2.5

     total cpu time spent up to now is     1013.3 secs

     total energy              =    -467.83838634 Ry
     Harris-Foulkes estimate   =    -467.83840613 Ry
     estimated scf accuracy    <       0.00059167 Ry

     iteration # 23     ecut=    50.00 Ry     beta= 0.60
     Davidson diagonalization with overlap
     ethr =  8.36E-07,  avg # of iterations =  5.4

     total cpu time spent up to now is     1031.6 secs

     total energy              =    -467.83835196 Ry
     Harris-Foulkes estimate   =    -467.83850419 Ry
     estimated scf accuracy    <       0.00151903 Ry

     iteration # 24     ecut=    50.00 Ry     beta= 0.60
     Davidson diagonalization with overlap
     ethr =  8.36E-07,  avg # of iterations =  1.5

     total cpu time spent up to now is     1044.1 secs

     total energy              =    -467.83840101 Ry
     Harris-Foulkes estimate   =    -467.83837661 Ry
     estimated scf accuracy    <       0.00075684 Ry

     iteration # 25     ecut=    50.00 Ry     beta= 0.60
     Davidson diagonalization with overlap
     ethr =  8.36E-07,  avg # of iterations =  1.0

     total cpu time spent up to now is     1056.2 secs

     total energy              =    -467.83840942 Ry
     Harris-Foulkes estimate   =    -467.83840549 Ry
     estimated scf accuracy    <       0.00087020 Ry

     iteration # 26     ecut=    50.00 Ry     beta= 0.60
     Davidson diagonalization with overlap
     ethr =  8.36E-07,  avg # of iterations =  1.0

     total cpu time spent up to now is     1068.4 secs

     total energy              =    -467.83836675 Ry
     Harris-Foulkes estimate   =    -467.83841155 Ry
     estimated scf accuracy    <       0.00081001 Ry

     iteration # 27     ecut=    50.00 Ry     beta= 0.60
     Davidson diagonalization with overlap
     ethr =  8.36E-07,  avg # of iterations =  2.1

     total cpu time spent up to now is     1081.3 secs

     total energy              =    -467.83841916 Ry
     Harris-Foulkes estimate   =    -467.83837709 Ry
     estimated scf accuracy    <       0.00052670 Ry

     iteration # 28     ecut=    50.00 Ry     beta= 0.60
     Davidson diagonalization with overlap
     ethr =  8.36E-07,  avg # of iterations =  1.0

     total cpu time spent up to now is     1093.4 secs

     total energy              =    -467.83825883 Ry
     Harris-Foulkes estimate   =    -467.83842453 Ry
     estimated scf accuracy    <       0.00074626 Ry

     iteration # 29     ecut=    50.00 Ry     beta= 0.60
     Davidson diagonalization with overlap
     ethr =  8.36E-07,  avg # of iterations =  4.1

     total cpu time spent up to now is     1110.4 secs

     total energy              =    -467.83834322 Ry
     Harris-Foulkes estimate   =    -467.83836741 Ry
     estimated scf accuracy    <       0.00011820 Ry

     iteration # 30     ecut=    50.00 Ry     beta= 0.60
     Davidson diagonalization with overlap
     ethr =  2.41E-07,  avg # of iterations =  3.6

     total cpu time spent up to now is     1126.4 secs

     total energy              =    -467.83835655 Ry
     Harris-Foulkes estimate   =    -467.83835644 Ry
     estimated scf accuracy    <       0.00000446 Ry

     iteration # 31     ecut=    50.00 Ry     beta= 0.60
     Davidson diagonalization with overlap
     ethr =  9.11E-09,  avg # of iterations =  5.8

     total cpu time spent up to now is     1147.8 secs

     total energy              =    -467.83836155 Ry
     Harris-Foulkes estimate   =    -467.83836374 Ry
     estimated scf accuracy    <       0.00005286 Ry

     iteration # 32     ecut=    50.00 Ry     beta= 0.60
     Davidson diagonalization with overlap
     ethr =  9.11E-09,  avg # of iterations =  1.0

     total cpu time spent up to now is     1160.9 secs

     total energy              =    -467.83835307 Ry
     Harris-Foulkes estimate   =    -467.83836166 Ry
     estimated scf accuracy    <       0.00004076 Ry

     iteration # 33     ecut=    50.00 Ry     beta= 0.60
     Davidson diagonalization with overlap
     ethr =  9.11E-09,  avg # of iterations =  4.9

     total cpu time spent up to now is     1181.0 secs

     total energy              =    -467.83835767 Ry
     Harris-Foulkes estimate   =    -467.83835811 Ry
     estimated scf accuracy    <       0.00000200 Ry

     iteration # 34     ecut=    50.00 Ry     beta= 0.60
     Davidson diagonalization with overlap
     ethr =  4.09E-09,  avg # of iterations =  3.0

     total cpu time spent up to now is     1195.2 secs

     total energy              =    -467.83835778 Ry
     Harris-Foulkes estimate   =    -467.83835784 Ry
     estimated scf accuracy    <       0.00000025 Ry

     iteration # 35     ecut=    50.00 Ry     beta= 0.60
     Davidson diagonalization with overlap
     ethr =  5.06E-10,  avg # of iterations =  5.0

     total cpu time spent up to now is     1214.6 secs

     total energy              =    -467.83835787 Ry
     Harris-Foulkes estimate   =    -467.83835795 Ry
     estimated scf accuracy    <       0.00000055 Ry

     iteration # 36     ecut=    50.00 Ry     beta= 0.60
     Davidson diagonalization with overlap
     ethr =  5.06E-10,  avg # of iterations =  2.4

     total cpu time spent up to now is     1228.3 secs

     total energy              =    -467.83835838 Ry
     Harris-Foulkes estimate   =    -467.83835839 Ry
     estimated scf accuracy    <       0.00000016 Ry

     iteration # 37     ecut=    50.00 Ry     beta= 0.60
     Davidson diagonalization with overlap
     ethr =  3.18E-10,  avg # of iterations =  3.6

     total cpu time spent up to now is     1243.5 secs

     total energy              =    -467.83835839 Ry
     Harris-Foulkes estimate   =    -467.83835839 Ry
     estimated scf accuracy    <       0.00000002 Ry

     iteration # 38     ecut=    50.00 Ry     beta= 0.60
     Davidson diagonalization with overlap
     ethr =  3.23E-11,  avg # of iterations =  4.8

     total cpu time spent up to now is     1261.3 secs

     total energy              =    -467.83835839 Ry
     Harris-Foulkes estimate   =    -467.83835839 Ry
     estimated scf accuracy    <          1.2E-10 Ry

     iteration # 39     ecut=    50.00 Ry     beta= 0.60
     Davidson diagonalization with overlap
     ethr =  2.48E-13,  avg # of iterations =  5.9

     total cpu time spent up to now is     1283.8 secs

     total energy              =    -467.83835839 Ry
     Harris-Foulkes estimate   =    -467.83835839 Ry
     estimated scf accuracy    <          9.7E-10 Ry

     iteration # 40     ecut=    50.00 Ry     beta= 0.60
     Davidson diagonalization with overlap
     ethr =  2.48E-13,  avg # of iterations =  4.1

     total cpu time spent up to now is     1301.5 secs

     End of self-consistent calculation

     Number of k-points >= 100: set verbosity='high' to print the bands.

     the Fermi energy is    12.4526 ev

!    total energy              =    -467.83835839 Ry
     Harris-Foulkes estimate   =    -467.83835839 Ry
     estimated scf accuracy    <          6.4E-11 Ry

     The total energy is the sum of the following terms:

     one-electron contribution =    -161.27312460 Ry
     hartree contribution      =      94.68860205 Ry
     xc contribution           =     -61.64389899 Ry
     ewald contribution        =    -339.60892939 Ry
     smearing contrib. (-TS)   =      -0.00100745 Ry

     convergence has been achieved in  40 iterations

     Forces acting on atoms (cartesian axes, Ry/au):

     atom    1 type  2   force =     0.00000000   -0.00000000   -0.00000000
     atom    2 type  2   force =     0.00000000    0.00000000    0.00000000
     atom    3 type  2   force =     0.00000000    0.00000000    0.00000000
     atom    4 type  1   force =     0.00000000    0.00000000   -0.00000000

     Total force =     0.000000     Total SCF correction =     0.000000


     Computing stress (Cartesian axis) and pressure

          total   stress  (Ry/bohr**3)                   (kbar)     P= -127.86
  -0.00084587   0.00000000   0.00000000       -124.43      0.00      0.00
   0.00000000  -0.00088085  -0.00000000          0.00   -129.58     -0.00
   0.00000000  -0.00000000  -0.00088085          0.00     -0.00   -129.58


     number of scf cycles    =   2
     number of bfgs steps    =   1

     enthalpy old            =    -467.7806004932 Ry
     enthalpy new            =    -467.8383583934 Ry

     CASE: enthalpy_new < enthalpy_old

     new trust radius        =       0.2262187832 bohr
     new conv_thr            =            1.0E-12 Ry

     new unit-cell volume =    459.56395 a.u.^3 (    68.10035 Ang^3 )
     density =      5.76693 g/cm^3

CELL_PARAMETERS (alat=  1.88972599)
   0.000000000  -3.238081412   3.238081412
   0.000000000   3.238081412   3.238081412
  -3.247460859   0.000000000   0.000000000

ATOMIC_POSITIONS (angstrom)
Ti      -3.247460859   0.000000000   3.238081412
Ti      -1.623730429  -1.619040706   4.857122118
Ti      -3.247460859   0.000000000   6.476162825
Nb      -1.623730429   1.619040706   4.857122118


     NEW-OLD atomic charge density approx. for the potential
     extrapolated charge   41.63309, renormalised to   49.00000

     total cpu time spent up to now is     1311.3 secs

     Self-consistent Calculation

     iteration #  1     ecut=    50.00 Ry     beta= 0.60
     Davidson diagonalization with overlap
     c_bands:  1 eigenvalues not converged
     c_bands:  2 eigenvalues not converged
     c_bands:  4 eigenvalues not converged
     ethr =  1.00E-06,  avg # of iterations = 12.0

     total cpu time spent up to now is     1358.5 secs

     total energy              =    -445.03235349 Ry
     Harris-Foulkes estimate   =    -485.60452505 Ry
     estimated scf accuracy    <      24.51560892 Ry

     iteration #  2     ecut=    50.00 Ry     beta= 0.60
     Davidson diagonalization with overlap
     ethr =  1.00E-02,  avg # of iterations =  5.6

     total cpu time spent up to now is     1385.8 secs

     total energy              =    -465.28902735 Ry
     Harris-Foulkes estimate   =    -491.92376882 Ry
     estimated scf accuracy    <      74.51210148 Ry

     iteration #  3     ecut=    50.00 Ry     beta= 0.60
     Davidson diagonalization with overlap
     ethr =  1.00E-02,  avg # of iterations =  5.1

     total cpu time spent up to now is     1409.2 secs

     total energy              =    -468.19473900 Ry
     Harris-Foulkes estimate   =    -472.89095302 Ry
     estimated scf accuracy    <      18.70928849 Ry

     iteration #  4     ecut=    50.00 Ry     beta= 0.60
     Davidson diagonalization with overlap
     ethr =  1.00E-02,  avg # of iterations =  3.0

     total cpu time spent up to now is     1424.3 secs

     total energy              =    -468.70772968 Ry
     Harris-Foulkes estimate   =    -471.13993548 Ry
     estimated scf accuracy    <      12.48900385 Ry

     iteration #  5     ecut=    50.00 Ry     beta= 0.60
     Davidson diagonalization with overlap
     ethr =  1.00E-02,  avg # of iterations =  1.5

     total cpu time spent up to now is     1437.2 secs

     total energy              =    -468.71260417 Ry
     Harris-Foulkes estimate   =    -468.93979452 Ry
     estimated scf accuracy    <       6.14483430 Ry

     iteration #  6     ecut=    50.00 Ry     beta= 0.60
     Davidson diagonalization with overlap
     ethr =  1.00E-02,  avg # of iterations =  1.0

     total cpu time spent up to now is     1449.7 secs

     total energy              =    -468.42424045 Ry
     Harris-Foulkes estimate   =    -468.76561206 Ry
     estimated scf accuracy    <       5.10512676 Ry

     iteration #  7     ecut=    50.00 Ry     beta= 0.60
     Davidson diagonalization with overlap
     ethr =  1.00E-02,  avg # of iterations =  1.0

     total cpu time spent up to now is     1462.2 secs

     total energy              =    -467.93277059 Ry
     Harris-Foulkes estimate   =    -468.46744061 Ry
     estimated scf accuracy    <       4.06398257 Ry

     iteration #  8     ecut=    50.00 Ry     beta= 0.60
     Davidson diagonalization with overlap
     ethr =  8.29E-03,  avg # of iterations =  1.8

     total cpu time spent up to now is     1475.5 secs

     total energy              =    -468.16134091 Ry
     Harris-Foulkes estimate   =    -468.05955130 Ry
     estimated scf accuracy    <       1.47478947 Ry

     iteration #  9     ecut=    50.00 Ry     beta= 0.60
     Davidson diagonalization with overlap
     ethr =  3.01E-03,  avg # of iterations =  1.1

     total cpu time spent up to now is     1488.2 secs

     total energy              =    -468.13571323 Ry
     Harris-Foulkes estimate   =    -468.18261598 Ry
     estimated scf accuracy    <       1.94300117 Ry

     iteration # 10     ecut=    50.00 Ry     beta= 0.60
     Davidson diagonalization with overlap
     ethr =  3.01E-03,  avg # of iterations =  1.0

     total cpu time spent up to now is     1500.7 secs

     total energy              =    -467.64304706 Ry
     Harris-Foulkes estimate   =    -468.14102227 Ry
     estimated scf accuracy    <       1.70514806 Ry

     iteration # 11     ecut=    50.00 Ry     beta= 0.60
     Davidson diagonalization with overlap
     ethr =  3.01E-03,  avg # of iterations =  4.0

     total cpu time spent up to now is     1517.2 secs

     total energy              =    -467.83865716 Ry
     Harris-Foulkes estimate   =    -467.83961820 Ry
     estimated scf accuracy    <       0.01364938 Ry

     iteration # 12     ecut=    50.00 Ry     beta= 0.60
     Davidson diagonalization with overlap
     c_bands:  1 eigenvalues not converged
     ethr =  2.79E-05,  avg # of iterations =  7.7

     total cpu time spent up to now is     1545.1 secs

     total energy              =    -467.87259679 Ry
     Harris-Foulkes estimate   =    -467.87536391 Ry
     estimated scf accuracy    <       0.04641380 Ry

     iteration # 13     ecut=    50.00 Ry     beta= 0.60
     Davidson diagonalization with overlap
     ethr =  2.79E-05,  avg # of iterations =  1.0

     total cpu time spent up to now is     1557.5 secs

     total energy              =    -467.87352486 Ry
     Harris-Foulkes estimate   =    -467.87279162 Ry
     estimated scf accuracy    <       0.03305031 Ry

     iteration # 14     ecut=    50.00 Ry     beta= 0.60
     Davidson diagonalization with overlap
     ethr =  2.79E-05,  avg # of iterations =  1.0

     total cpu time spent up to now is     1569.9 secs

     total energy              =    -467.87367054 Ry
     Harris-Foulkes estimate   =    -467.87378674 Ry
     estimated scf accuracy    <       0.03956342 Ry

     iteration # 15     ecut=    50.00 Ry     beta= 0.60
     Davidson diagonalization with overlap
     ethr =  2.79E-05,  avg # of iterations =  1.0

     total cpu time spent up to now is     1582.2 secs

     total energy              =    -467.87547804 Ry
     Harris-Foulkes estimate   =    -467.87373767 Ry
     estimated scf accuracy    <       0.03793078 Ry

     iteration # 16     ecut=    50.00 Ry     beta= 0.60
     Davidson diagonalization with overlap
     ethr =  2.79E-05,  avg # of iterations =  1.0

     total cpu time spent up to now is     1594.5 secs

     total energy              =    -467.86886774 Ry
     Harris-Foulkes estimate   =    -467.87559728 Ry
     estimated scf accuracy    <       0.04832767 Ry

     iteration # 17     ecut=    50.00 Ry     beta= 0.60
     Davidson diagonalization with overlap
     ethr =  2.79E-05,  avg # of iterations =  3.7

     total cpu time spent up to now is     1609.9 secs

     total energy              =    -467.86978471 Ry
     Harris-Foulkes estimate   =    -467.87060439 Ry
     estimated scf accuracy    <       0.01488851 Ry

     iteration # 18     ecut=    50.00 Ry     beta= 0.60
     Davidson diagonalization with overlap
     ethr =  2.79E-05,  avg # of iterations =  2.0

     total cpu time spent up to now is     1623.3 secs

     total energy              =    -467.86900784 Ry
     Harris-Foulkes estimate   =    -467.87019725 Ry
     estimated scf accuracy    <       0.00643057 Ry

     iteration # 19     ecut=    50.00 Ry     beta= 0.60
     Davidson diagonalization with overlap
     ethr =  1.31E-05,  avg # of iterations =  5.0

     total cpu time spent up to now is     1641.6 secs

     total energy              =    -467.87002047 Ry
     Harris-Foulkes estimate   =    -467.87011735 Ry
     estimated scf accuracy    <       0.00051953 Ry

     iteration # 20     ecut=    50.00 Ry     beta= 0.60
     Davidson diagonalization with overlap
     c_bands:  1 eigenvalues not converged
     ethr =  1.06E-06,  avg # of iterations =  5.4

     total cpu time spent up to now is     1659.9 secs

     total energy              =    -467.87008070 Ry
     Harris-Foulkes estimate   =    -467.87010535 Ry
     estimated scf accuracy    <       0.00007832 Ry

     iteration # 21     ecut=    50.00 Ry     beta= 0.60
     Davidson diagonalization with overlap
     ethr =  1.60E-07,  avg # of iterations =  4.6

     total cpu time spent up to now is     1678.2 secs

     total energy              =    -467.87010391 Ry
     Harris-Foulkes estimate   =    -467.87010967 Ry
     estimated scf accuracy    <       0.00003997 Ry

     iteration # 22     ecut=    50.00 Ry     beta= 0.60
     Davidson diagonalization with overlap
     ethr =  8.16E-08,  avg # of iterations =  1.1

     total cpu time spent up to now is     1690.6 secs

     total energy              =    -467.87010000 Ry
     Harris-Foulkes estimate   =    -467.87010513 Ry
     estimated scf accuracy    <       0.00001385 Ry

     iteration # 23     ecut=    50.00 Ry     beta= 0.60
     Davidson diagonalization with overlap
     ethr =  2.83E-08,  avg # of iterations =  4.2

     total cpu time spent up to now is     1708.6 secs

     total energy              =    -467.87010273 Ry
     Harris-Foulkes estimate   =    -467.87010799 Ry
     estimated scf accuracy    <       0.00002517 Ry

     iteration # 24     ecut=    50.00 Ry     beta= 0.60
     Davidson diagonalization with overlap
     ethr =  2.83E-08,  avg # of iterations =  3.4

     total cpu time spent up to now is     1724.3 secs

     total energy              =    -467.87010498 Ry
     Harris-Foulkes estimate   =    -467.87010504 Ry
     estimated scf accuracy    <       0.00000026 Ry

     iteration # 25     ecut=    50.00 Ry     beta= 0.60
     Davidson diagonalization with overlap
     ethr =  5.37E-10,  avg # of iterations =  5.7

     total cpu time spent up to now is     1744.9 secs

     total energy              =    -467.87010517 Ry
     Harris-Foulkes estimate   =    -467.87010520 Ry
     estimated scf accuracy    <       0.00000023 Ry

     iteration # 26     ecut=    50.00 Ry     beta= 0.60
     Davidson diagonalization with overlap
     ethr =  4.68E-10,  avg # of iterations =  1.0

     total cpu time spent up to now is     1757.3 secs

     total energy              =    -467.87010517 Ry
     Harris-Foulkes estimate   =    -467.87010518 Ry
     estimated scf accuracy    <       0.00000008 Ry

     iteration # 27     ecut=    50.00 Ry     beta= 0.60
     Davidson diagonalization with overlap
     ethr =  1.57E-10,  avg # of iterations =  3.7

     total cpu time spent up to now is     1773.4 secs

     total energy              =    -467.87010518 Ry
     Harris-Foulkes estimate   =    -467.87010518 Ry
     estimated scf accuracy    <       0.00000002 Ry

     iteration # 28     ecut=    50.00 Ry     beta= 0.60
     Davidson diagonalization with overlap
     ethr =  4.18E-11,  avg # of iterations =  1.3

     total cpu time spent up to now is     1786.4 secs

     total energy              =    -467.87010518 Ry
     Harris-Foulkes estimate   =    -467.87010518 Ry
     estimated scf accuracy    <          7.5E-09 Ry

     iteration # 29     ecut=    50.00 Ry     beta= 0.60
     Davidson diagonalization with overlap
     ethr =  1.53E-11,  avg # of iterations =  3.8

     total cpu time spent up to now is     1802.8 secs

     total energy              =    -467.87010518 Ry
     Harris-Foulkes estimate   =    -467.87010518 Ry
     estimated scf accuracy    <          2.5E-09 Ry

     iteration # 30     ecut=    50.00 Ry     beta= 0.60
     Davidson diagonalization with overlap
     ethr =  5.15E-12,  avg # of iterations =  1.5

     total cpu time spent up to now is     1815.7 secs

     total energy              =    -467.87010518 Ry
     Harris-Foulkes estimate   =    -467.87010518 Ry
     estimated scf accuracy    <          7.3E-10 Ry

     iteration # 31     ecut=    50.00 Ry     beta= 0.60
     Davidson diagonalization with overlap
     ethr =  1.49E-12,  avg # of iterations =  4.1

     total cpu time spent up to now is     1832.8 secs

     total energy              =    -467.87010518 Ry
     Harris-Foulkes estimate   =    -467.87010518 Ry
     estimated scf accuracy    <          1.6E-10 Ry

     iteration # 32     ecut=    50.00 Ry     beta= 0.60
     Davidson diagonalization with overlap
     ethr =  3.33E-13,  avg # of iterations =  1.7

     total cpu time spent up to now is     1846.1 secs

     total energy              =    -467.87010518 Ry
     Harris-Foulkes estimate   =    -467.87010518 Ry
     estimated scf accuracy    <          7.2E-11 Ry

     iteration # 33     ecut=    50.00 Ry     beta= 0.60
     Davidson diagonalization with overlap
     ethr =  1.47E-13,  avg # of iterations =  3.3

     total cpu time spent up to now is     1861.5 secs

     total energy              =    -467.87010518 Ry
     Harris-Foulkes estimate   =    -467.87010518 Ry
     estimated scf accuracy    <          1.0E-12 Ry

     iteration # 34     ecut=    50.00 Ry     beta= 0.60
     Davidson diagonalization with overlap
     ethr =  1.00E-13,  avg # of iterations =  1.0

     total cpu time spent up to now is     1874.0 secs

     End of self-consistent calculation

     Number of k-points >= 100: set verbosity='high' to print the bands.

     the Fermi energy is    14.8631 ev

!    total energy              =    -467.87010518 Ry
     Harris-Foulkes estimate   =    -467.87010518 Ry
     estimated scf accuracy    <          2.0E-13 Ry

     The total energy is the sum of the following terms:

     one-electron contribution =    -135.79544453 Ry
     hartree contribution      =      86.90596652 Ry
     xc contribution           =     -62.13054262 Ry
     ewald contribution        =    -356.84964321 Ry
     smearing contrib. (-TS)   =      -0.00044133 Ry

     convergence has been achieved in  34 iterations

     Forces acting on atoms (cartesian axes, Ry/au):

     atom    1 type  2   force =     0.00000000    0.00000000    0.00000000
     atom    2 type  2   force =     0.00000000    0.00000000    0.00000000
     atom    3 type  2   force =     0.00000000    0.00000000    0.00000000
     atom    4 type  1   force =     0.00000000    0.00000000    0.00000000

     Total force =     0.000000     Total SCF correction =     0.000000


     Computing stress (Cartesian axis) and pressure

          total   stress  (Ry/bohr**3)                   (kbar)     P=   18.03
   0.00013921   0.00000000   0.00000000         20.48      0.00      0.00
   0.00000000   0.00011427   0.00000000          0.00     16.81      0.00
   0.00000000   0.00000000   0.00011427          0.00      0.00     16.81


     number of scf cycles    =   3
     number of bfgs steps    =   2

     enthalpy old            =    -467.8383583934 Ry
     enthalpy new            =    -467.8701051816 Ry

     CASE: enthalpy_new < enthalpy_old

     new trust radius        =       0.0256158008 bohr
     new conv_thr            =            1.0E-12 Ry

     new unit-cell volume =    467.52263 a.u.^3 (    69.27971 Ang^3 )
     density =      5.66876 g/cm^3

CELL_PARAMETERS (alat=  1.88972599)
   0.000000000  -3.256286513   3.256286513
   0.000000000   3.256286513   3.256286513
  -3.266862966   0.000000000   0.000000000

ATOMIC_POSITIONS (angstrom)
Ti      -3.266862966   0.000000000   3.256286513
Ti      -1.633431483  -1.628143256   4.884429769
Ti      -3.266862966   0.000000000   6.512573025
Nb      -1.633431483   1.628143256   4.884429769


     NEW-OLD atomic charge density approx. for the potential
     extrapolated charge   49.78301, renormalised to   49.00000

     total cpu time spent up to now is     1883.7 secs

     Self-consistent Calculation

     iteration #  1     ecut=    50.00 Ry     beta= 0.60
     Davidson diagonalization with overlap
     c_bands:  1 eigenvalues not converged
     c_bands:  1 eigenvalues not converged
     c_bands:  1 eigenvalues not converged
     ethr =  1.00E-06,  avg # of iterations = 10.9

     total cpu time spent up to now is     1919.1 secs

     total energy              =    -467.77328279 Ry
     Harris-Foulkes estimate   =    -466.28848629 Ry
     estimated scf accuracy    <       0.08461007 Ry

     iteration #  2     ecut=    50.00 Ry     beta= 0.60
     Davidson diagonalization with overlap
     ethr =  1.73E-04,  avg # of iterations =  5.0

     total cpu time spent up to now is     1944.4 secs

     total energy              =    -467.75326320 Ry
     Harris-Foulkes estimate   =    -468.02558624 Ry
     estimated scf accuracy    <       1.57169332 Ry

     iteration #  3     ecut=    50.00 Ry     beta= 0.60
     Davidson diagonalization with overlap
     ethr =  1.73E-04,  avg # of iterations =  5.5

     total cpu time spent up to now is     1966.9 secs

     total energy              =    -467.84581031 Ry
     Harris-Foulkes estimate   =    -467.90984756 Ry
     estimated scf accuracy    <       0.32179486 Ry

     iteration #  4     ecut=    50.00 Ry     beta= 0.60
     Davidson diagonalization with overlap
     ethr =  1.73E-04,  avg # of iterations =  5.4

     total cpu time spent up to now is     1986.4 secs

     total energy              =    -467.86953802 Ry
     Harris-Foulkes estimate   =    -467.88174317 Ry
     estimated scf accuracy    <       0.08055704 Ry

     iteration #  5     ecut=    50.00 Ry     beta= 0.60
     Davidson diagonalization with overlap
     ethr =  1.64E-04,  avg # of iterations =  1.1

     total cpu time spent up to now is     1999.0 secs

     total energy              =    -467.87114803 Ry
     Harris-Foulkes estimate   =    -467.87298235 Ry
     estimated scf accuracy    <       0.02415677 Ry

     iteration #  6     ecut=    50.00 Ry     beta= 0.60
     Davidson diagonalization with overlap
     ethr =  4.93E-05,  avg # of iterations =  4.1

     total cpu time spent up to now is     2015.0 secs

     total energy              =    -467.87155962 Ry
     Harris-Foulkes estimate   =    -467.87355260 Ry
     estimated scf accuracy    <       0.01480220 Ry

     iteration #  7     ecut=    50.00 Ry     beta= 0.60
     Davidson diagonalization with overlap
     ethr =  3.02E-05,  avg # of iterations =  1.6

     total cpu time spent up to now is     2027.9 secs

     total energy              =    -467.87098714 Ry
     Harris-Foulkes estimate   =    -467.87187019 Ry
     estimated scf accuracy    <       0.00907172 Ry

     iteration #  8     ecut=    50.00 Ry     beta= 0.60
     Davidson diagonalization with overlap
     ethr =  1.85E-05,  avg # of iterations =  2.1

     total cpu time spent up to now is     2041.1 secs

     total energy              =    -467.87037110 Ry
     Harris-Foulkes estimate   =    -467.87120614 Ry
     estimated scf accuracy    <       0.00511181 Ry

     iteration #  9     ecut=    50.00 Ry     beta= 0.60
     Davidson diagonalization with overlap
     ethr =  1.04E-05,  avg # of iterations =  2.9

     total cpu time spent up to now is     2055.1 secs

     total energy              =    -467.87048432 Ry
     Harris-Foulkes estimate   =    -467.87057818 Ry
     estimated scf accuracy    <       0.00161590 Ry

     iteration # 10     ecut=    50.00 Ry     beta= 0.60
     Davidson diagonalization with overlap
     ethr =  3.30E-06,  avg # of iterations =  5.6

     total cpu time spent up to now is     2072.6 secs

     total energy              =    -467.87036181 Ry
     Harris-Foulkes estimate   =    -467.87061464 Ry
     estimated scf accuracy    <       0.00065849 Ry

     iteration # 11     ecut=    50.00 Ry     beta= 0.60
     Davidson diagonalization with overlap
     ethr =  1.34E-06,  avg # of iterations =  4.8

     total cpu time spent up to now is     2090.8 secs

     total energy              =    -467.87049357 Ry
     Harris-Foulkes estimate   =    -467.87050241 Ry
     estimated scf accuracy    <       0.00002527 Ry

     iteration # 12     ecut=    50.00 Ry     beta= 0.60
     Davidson diagonalization with overlap
     ethr =  5.16E-08,  avg # of iterations =  4.3

     total cpu time spent up to now is     2109.8 secs

     total energy              =    -467.87050539 Ry
     Harris-Foulkes estimate   =    -467.87050451 Ry
     estimated scf accuracy    <       0.00000284 Ry

     iteration # 13     ecut=    50.00 Ry     beta= 0.60
     Davidson diagonalization with overlap
     ethr =  5.79E-09,  avg # of iterations =  4.4

     total cpu time spent up to now is     2127.9 secs

     total energy              =    -467.87050448 Ry
     Harris-Foulkes estimate   =    -467.87050628 Ry
     estimated scf accuracy    <       0.00001821 Ry

     iteration # 14     ecut=    50.00 Ry     beta= 0.60
     Davidson diagonalization with overlap
     ethr =  5.79E-09,  avg # of iterations =  3.2

     total cpu time spent up to now is     2142.5 secs

     total energy              =    -467.87050393 Ry
     Harris-Foulkes estimate   =    -467.87050481 Ry
     estimated scf accuracy    <       0.00000696 Ry

     iteration # 15     ecut=    50.00 Ry     beta= 0.60
     Davidson diagonalization with overlap
     ethr =  5.79E-09,  avg # of iterations =  3.4

     total cpu time spent up to now is     2157.5 secs

     total energy              =    -467.87050399 Ry
     Harris-Foulkes estimate   =    -467.87050430 Ry
     estimated scf accuracy    <       0.00000123 Ry

     iteration # 16     ecut=    50.00 Ry     beta= 0.60
     Davidson diagonalization with overlap
     ethr =  2.51E-09,  avg # of iterations =  4.0

     total cpu time spent up to now is     2174.2 secs

     total energy              =    -467.87050433 Ry
     Harris-Foulkes estimate   =    -467.87050436 Ry
     estimated scf accuracy    <       0.00000044 Ry

     iteration # 17     ecut=    50.00 Ry     beta= 0.60
     Davidson diagonalization with overlap
     ethr =  8.98E-10,  avg # of iterations =  1.6

     total cpu time spent up to now is     2187.1 secs

     total energy              =    -467.87050429 Ry
     Harris-Foulkes estimate   =    -467.87050433 Ry
     estimated scf accuracy    <       0.00000030 Ry

     iteration # 18     ecut=    50.00 Ry     beta= 0.60
     Davidson diagonalization with overlap
     ethr =  6.05E-10,  avg # of iterations =  2.8

     total cpu time spent up to now is     2201.4 secs

     total energy              =    -467.87050431 Ry
     Harris-Foulkes estimate   =    -467.87050431 Ry
     estimated scf accuracy    <       0.00000003 Ry

     iteration # 19     ecut=    50.00 Ry     beta= 0.60
     Davidson diagonalization with overlap
     ethr =  5.37E-11,  avg # of iterations =  4.1

     total cpu time spent up to now is     2217.9 secs

     total energy              =    -467.87050431 Ry
     Harris-Foulkes estimate   =    -467.87050431 Ry
     estimated scf accuracy    <          5.8E-09 Ry

     iteration # 20     ecut=    50.00 Ry     beta= 0.60
     Davidson diagonalization with overlap
     ethr =  1.18E-11,  avg # of iterations =  3.7

     total cpu time spent up to now is     2233.7 secs

     total energy              =    -467.87050431 Ry
     Harris-Foulkes estimate   =    -467.87050431 Ry
     estimated scf accuracy    <          5.3E-10 Ry

     iteration # 21     ecut=    50.00 Ry     beta= 0.60
     Davidson diagonalization with overlap
     ethr =  1.08E-12,  avg # of iterations =  4.1

     total cpu time spent up to now is     2250.5 secs

     total energy              =    -467.87050431 Ry
     Harris-Foulkes estimate   =    -467.87050431 Ry
     estimated scf accuracy    <          2.1E-10 Ry

     iteration # 22     ecut=    50.00 Ry     beta= 0.60
     Davidson diagonalization with overlap
     ethr =  4.21E-13,  avg # of iterations =  1.7

     total cpu time spent up to now is     2263.4 secs

     total energy              =    -467.87050431 Ry
     Harris-Foulkes estimate   =    -467.87050431 Ry
     estimated scf accuracy    <          1.3E-10 Ry

     iteration # 23     ecut=    50.00 Ry     beta= 0.60
     Davidson diagonalization with overlap
     ethr =  2.62E-13,  avg # of iterations =  3.6

     total cpu time spent up to now is     2279.3 secs

     End of self-consistent calculation

     Number of k-points >= 100: set verbosity='high' to print the bands.

     the Fermi energy is    14.5675 ev

!    total energy              =    -467.87050431 Ry
     Harris-Foulkes estimate   =    -467.87050431 Ry
     estimated scf accuracy    <          9.4E-13 Ry

     The total energy is the sum of the following terms:

     one-electron contribution =    -138.78116614 Ry
     hartree contribution      =      87.79399885 Ry
     xc contribution           =     -62.06969470 Ry
     ewald contribution        =    -354.81316569 Ry
     smearing contrib. (-TS)   =      -0.00047662 Ry

     convergence has been achieved in  23 iterations

     Forces acting on atoms (cartesian axes, Ry/au):

     atom    1 type  2   force =     0.00000000    0.00000000    0.00000000
     atom    2 type  2   force =     0.00000000    0.00000000    0.00000000
     atom    3 type  2   force =     0.00000000    0.00000000    0.00000000
     atom    4 type  1   force =     0.00000000    0.00000000    0.00000000

     Total force =     0.000000     Total SCF correction =     0.000000


     Computing stress (Cartesian axis) and pressure

          total   stress  (Ry/bohr**3)                   (kbar)     P=   -3.11
  -0.00000312   0.00000000   0.00000000         -0.46      0.00      0.00
   0.00000000  -0.00003016   0.00000000          0.00     -4.44      0.00
   0.00000000   0.00000000  -0.00003016          0.00      0.00     -4.44


     number of scf cycles    =   4
     number of bfgs steps    =   3

     enthalpy old            =    -467.8701051816 Ry
     enthalpy new            =    -467.8705043127 Ry

     CASE: enthalpy_new < enthalpy_old

     new trust radius        =       0.0044151938 bohr
     new conv_thr            =            1.0E-12 Ry

     new unit-cell volume =    466.35794 a.u.^3 (    69.10712 Ang^3 )
     density =      5.68291 g/cm^3

CELL_PARAMETERS (alat=  1.88972599)
   0.000000000  -3.252961900   3.252961900
   0.000000000   3.252961900   3.252961900
  -3.265388951   0.000000000   0.000000000

ATOMIC_POSITIONS (angstrom)
Ti      -3.265388951   0.000000000   3.252961900
Ti      -1.632694476  -1.626480950   4.879442850
Ti      -3.265388951   0.000000000   6.505923800
Nb      -1.632694476   1.626480950   4.879442850


     NEW-OLD atomic charge density approx. for the potential
     extrapolated charge   48.88513, renormalised to   49.00000

     total cpu time spent up to now is     2289.0 secs

     Self-consistent Calculation

     iteration #  1     ecut=    50.00 Ry     beta= 0.60
     Davidson diagonalization with overlap
     ethr =  1.00E-06,  avg # of iterations =  4.5

     total cpu time spent up to now is     2311.7 secs

     total energy              =    -467.86810726 Ry
     Harris-Foulkes estimate   =    -468.10483319 Ry
     estimated scf accuracy    <       0.00216392 Ry

     iteration #  2     ecut=    50.00 Ry     beta= 0.60
     Davidson diagonalization with overlap
     ethr =  4.42E-06,  avg # of iterations =  5.1

     total cpu time spent up to now is     2336.7 secs

     total energy              =    -467.86739490 Ry
     Harris-Foulkes estimate   =    -467.87468027 Ry
     estimated scf accuracy    <       0.04378591 Ry

     iteration #  3     ecut=    50.00 Ry     beta= 0.60
     Davidson diagonalization with overlap
     ethr =  4.42E-06,  avg # of iterations =  5.4

     total cpu time spent up to now is     2358.7 secs

     total energy              =    -467.87000259 Ry
     Harris-Foulkes estimate   =    -467.87137666 Ry
     estimated scf accuracy    <       0.00615464 Ry

     iteration #  4     ecut=    50.00 Ry     beta= 0.60
     Davidson diagonalization with overlap
     ethr =  4.42E-06,  avg # of iterations =  4.6

     total cpu time spent up to now is     2376.1 secs

     total energy              =    -467.87049599 Ry
     Harris-Foulkes estimate   =    -467.87084896 Ry
     estimated scf accuracy    <       0.00253381 Ry

     iteration #  5     ecut=    50.00 Ry     beta= 0.60
     Davidson diagonalization with overlap
     ethr =  4.42E-06,  avg # of iterations =  1.1

     total cpu time spent up to now is     2388.6 secs

     total energy              =    -467.87054855 Ry
     Harris-Foulkes estimate   =    -467.87058993 Ry
     estimated scf accuracy    <       0.00081228 Ry

     iteration #  6     ecut=    50.00 Ry     beta= 0.60
     Davidson diagonalization with overlap
     ethr =  1.66E-06,  avg # of iterations =  3.5

     total cpu time spent up to now is     2403.6 secs

     total energy              =    -467.87054204 Ry
     Harris-Foulkes estimate   =    -467.87059959 Ry
     estimated scf accuracy    <       0.00043357 Ry

     iteration #  7     ecut=    50.00 Ry     beta= 0.60
     Davidson diagonalization with overlap
     ethr =  8.85E-07,  avg # of iterations =  2.9

     total cpu time spent up to now is     2417.6 secs

     total energy              =    -467.87053233 Ry
     Harris-Foulkes estimate   =    -467.87056280 Ry
     estimated scf accuracy    <       0.00024919 Ry

     iteration #  8     ecut=    50.00 Ry     beta= 0.60
     Davidson diagonalization with overlap
     ethr =  5.09E-07,  avg # of iterations =  1.7

     total cpu time spent up to now is     2430.6 secs

     total energy              =    -467.87052953 Ry
     Harris-Foulkes estimate   =    -467.87053934 Ry
     estimated scf accuracy    <       0.00013138 Ry

     iteration #  9     ecut=    50.00 Ry     beta= 0.60
     Davidson diagonalization with overlap
     ethr =  2.68E-07,  avg # of iterations =  1.2

     total cpu time spent up to now is     2443.0 secs

     total energy              =    -467.87050122 Ry
     Harris-Foulkes estimate   =    -467.87053169 Ry
     estimated scf accuracy    <       0.00008877 Ry

     iteration # 10     ecut=    50.00 Ry     beta= 0.60
     Davidson diagonalization with overlap
     ethr =  1.81E-07,  avg # of iterations =  4.0

     total cpu time spent up to now is     2460.5 secs

     total energy              =    -467.87052128 Ry
     Harris-Foulkes estimate   =    -467.87052259 Ry
     estimated scf accuracy    <       0.00001029 Ry

     iteration # 11     ecut=    50.00 Ry     beta= 0.60
     Davidson diagonalization with overlap
     ethr =  2.10E-08,  avg # of iterations =  2.6

     total cpu time spent up to now is     2474.6 secs

     total energy              =    -467.87052201 Ry
     Harris-Foulkes estimate   =    -467.87052204 Ry
     estimated scf accuracy    <       0.00000480 Ry

     iteration # 12     ecut=    50.00 Ry     beta= 0.60
     Davidson diagonalization with overlap
     ethr =  9.80E-09,  avg # of iterations =  2.1

     total cpu time spent up to now is     2487.9 secs

     total energy              =    -467.87052199 Ry
     Harris-Foulkes estimate   =    -467.87052219 Ry
     estimated scf accuracy    <       0.00000458 Ry

     iteration # 13     ecut=    50.00 Ry     beta= 0.60
     Davidson diagonalization with overlap
     ethr =  9.34E-09,  avg # of iterations =  1.0

     total cpu time spent up to now is     2500.4 secs

     total energy              =    -467.87052173 Ry
     Harris-Foulkes estimate   =    -467.87052205 Ry
     estimated scf accuracy    <       0.00000347 Ry

     iteration # 14     ecut=    50.00 Ry     beta= 0.60
     Davidson diagonalization with overlap
     ethr =  7.08E-09,  avg # of iterations =  2.2

     total cpu time spent up to now is     2513.9 secs

     total energy              =    -467.87052185 Ry
     Harris-Foulkes estimate   =    -467.87052186 Ry
     estimated scf accuracy    <       0.00000123 Ry

     iteration # 15     ecut=    50.00 Ry     beta= 0.60
     Davidson diagonalization with overlap
     ethr =  2.51E-09,  avg # of iterations =  1.5

     total cpu time spent up to now is     2526.6 secs

     total energy              =    -467.87052182 Ry
     Harris-Foulkes estimate   =    -467.87052187 Ry
     estimated scf accuracy    <       0.00000113 Ry

     iteration # 16     ecut=    50.00 Ry     beta= 0.60
     Davidson diagonalization with overlap
     ethr =  2.30E-09,  avg # of iterations =  1.0

     total cpu time spent up to now is     2539.2 secs

     total energy              =    -467.87052166 Ry
     Harris-Foulkes estimate   =    -467.87052184 Ry
     estimated scf accuracy    <       0.00000090 Ry

     iteration # 17     ecut=    50.00 Ry     beta= 0.60
     Davidson diagonalization with overlap
     ethr =  1.83E-09,  avg # of iterations =  3.6

     total cpu time spent up to now is     2555.2 secs

     total energy              =    -467.87052179 Ry
     Harris-Foulkes estimate   =    -467.87052182 Ry
     estimated scf accuracy    <       0.00000024 Ry

     iteration # 18     ecut=    50.00 Ry     beta= 0.60
     Davidson diagonalization with overlap
     ethr =  4.97E-10,  avg # of iterations =  1.7

     total cpu time spent up to now is     2568.2 secs

     total energy              =    -467.87052179 Ry
     Harris-Foulkes estimate   =    -467.87052180 Ry
     estimated scf accuracy    <       0.00000012 Ry

     iteration # 19     ecut=    50.00 Ry     beta= 0.60
     Davidson diagonalization with overlap
     ethr =  2.52E-10,  avg # of iterations =  3.0

     total cpu time spent up to now is     2582.8 secs

     total energy              =    -467.87052180 Ry
     Harris-Foulkes estimate   =    -467.87052180 Ry
     estimated scf accuracy    <       0.00000005 Ry

     iteration # 20     ecut=    50.00 Ry     beta= 0.60
     Davidson diagonalization with overlap
     ethr =  9.48E-11,  avg # of iterations =  2.3

     total cpu time spent up to now is     2596.1 secs

     total energy              =    -467.87052179 Ry
     Harris-Foulkes estimate   =    -467.87052180 Ry
     estimated scf accuracy    <       0.00000003 Ry

     iteration # 21     ecut=    50.00 Ry     beta= 0.60
     Davidson diagonalization with overlap
     ethr =  6.70E-11,  avg # of iterations =  1.4

     total cpu time spent up to now is     2608.9 secs

     total energy              =    -467.87052179 Ry
     Harris-Foulkes estimate   =    -467.87052179 Ry
     estimated scf accuracy    <       0.00000001 Ry

     iteration # 22     ecut=    50.00 Ry     beta= 0.60
     Davidson diagonalization with overlap
     ethr =  2.92E-11,  avg # of iterations =  3.5

     total cpu time spent up to now is     2624.0 secs

     total energy              =    -467.87052179 Ry
     Harris-Foulkes estimate   =    -467.87052179 Ry
     estimated scf accuracy    <          1.0E-09 Ry

     iteration # 23     ecut=    50.00 Ry     beta= 0.60
     Davidson diagonalization with overlap
     ethr =  2.07E-12,  avg # of iterations =  4.7

     total cpu time spent up to now is     2641.9 secs

     total energy              =    -467.87052179 Ry
     Harris-Foulkes estimate   =    -467.87052179 Ry
     estimated scf accuracy    <          3.1E-09 Ry

     iteration # 24     ecut=    50.00 Ry     beta= 0.60
     Davidson diagonalization with overlap
     ethr =  2.07E-12,  avg # of iterations =  1.0

     total cpu time spent up to now is     2654.2 secs

     total energy              =    -467.87052179 Ry
     Harris-Foulkes estimate   =    -467.87052179 Ry
     estimated scf accuracy    <          2.7E-09 Ry

     iteration # 25     ecut=    50.00 Ry     beta= 0.60
     Davidson diagonalization with overlap
     ethr =  2.07E-12,  avg # of iterations =  1.0

     total cpu time spent up to now is     2667.3 secs

     total energy              =    -467.87052179 Ry
     Harris-Foulkes estimate   =    -467.87052179 Ry
     estimated scf accuracy    <          3.4E-09 Ry

     iteration # 26     ecut=    50.00 Ry     beta= 0.60
     Davidson diagonalization with overlap
     ethr =  2.07E-12,  avg # of iterations =  2.0

     total cpu time spent up to now is     2681.7 secs

     total energy              =    -467.87052179 Ry
     Harris-Foulkes estimate   =    -467.87052179 Ry
     estimated scf accuracy    <          4.5E-09 Ry

     iteration # 27     ecut=    50.00 Ry     beta= 0.60
     Davidson diagonalization with overlap
     ethr =  2.07E-12,  avg # of iterations =  4.3

     total cpu time spent up to now is     2699.3 secs

     total energy              =    -467.87052179 Ry
     Harris-Foulkes estimate   =    -467.87052179 Ry
     estimated scf accuracy    <          3.2E-10 Ry

     iteration # 28     ecut=    50.00 Ry     beta= 0.60
     Davidson diagonalization with overlap
     ethr =  6.58E-13,  avg # of iterations =  3.9

     total cpu time spent up to now is     2714.6 secs

     total energy              =    -467.87052179 Ry
     Harris-Foulkes estimate   =    -467.87052179 Ry
     estimated scf accuracy    <          1.5E-09 Ry

     iteration # 29     ecut=    50.00 Ry     beta= 0.60
     Davidson diagonalization with overlap
     ethr =  6.58E-13,  avg # of iterations =  2.8

     total cpu time spent up to now is     2728.6 secs

     total energy              =    -467.87052179 Ry
     Harris-Foulkes estimate   =    -467.87052179 Ry
     estimated scf accuracy    <          4.1E-10 Ry

     iteration # 30     ecut=    50.00 Ry     beta= 0.60
     Davidson diagonalization with overlap
     ethr =  6.58E-13,  avg # of iterations =  2.3

     total cpu time spent up to now is     2742.0 secs

     total energy              =    -467.87052179 Ry
     Harris-Foulkes estimate   =    -467.87052179 Ry
     estimated scf accuracy    <          9.4E-11 Ry

     iteration # 31     ecut=    50.00 Ry     beta= 0.60
     Davidson diagonalization with overlap
     ethr =  1.93E-13,  avg # of iterations =  3.8

     total cpu time spent up to now is     2757.9 secs

     total energy              =    -467.87052179 Ry
     Harris-Foulkes estimate   =    -467.87052179 Ry
     estimated scf accuracy    <          4.4E-12 Ry

     iteration # 32     ecut=    50.00 Ry     beta= 0.60
     Davidson diagonalization with overlap
     ethr =  1.00E-13,  avg # of iterations =  1.1

     total cpu time spent up to now is     2770.4 secs

     End of self-consistent calculation

     Number of k-points >= 100: set verbosity='high' to print the bands.

     the Fermi energy is    14.6102 ev

!    total energy              =    -467.87052179 Ry
     Harris-Foulkes estimate   =    -467.87052179 Ry
     estimated scf accuracy    <          9.7E-13 Ry

     The total energy is the sum of the following terms:

     one-electron contribution =    -138.34792033 Ry
     hartree contribution      =      87.66462988 Ry
     xc contribution           =     -62.07843452 Ry
     ewald contribution        =    -355.10831860 Ry
     smearing contrib. (-TS)   =      -0.00047823 Ry

     convergence has been achieved in  32 iterations

     Forces acting on atoms (cartesian axes, Ry/au):

     atom    1 type  2   force =     0.00000000    0.00000000    0.00000000
     atom    2 type  2   force =     0.00000000    0.00000000    0.00000000
     atom    3 type  2   force =     0.00000000    0.00000000    0.00000000
     atom    4 type  1   force =     0.00000000    0.00000000    0.00000000

     Total force =     0.000000     Total SCF correction =     0.000000


     Computing stress (Cartesian axis) and pressure

          total   stress  (Ry/bohr**3)                   (kbar)     P=   -0.11
   0.00001659   0.00000000   0.00000000          2.44      0.00      0.00
   0.00000000  -0.00000939   0.00000000          0.00     -1.38      0.00
   0.00000000   0.00000000  -0.00000939          0.00      0.00     -1.38


     number of scf cycles    =   5
     number of bfgs steps    =   4

     enthalpy old            =    -467.8705043127 Ry
     enthalpy new            =    -467.8705217943 Ry

     CASE: enthalpy_new < enthalpy_old

     new trust radius        =       0.0020079885 bohr
     new conv_thr            =            1.0E-12 Ry

     new unit-cell volume =    466.10490 a.u.^3 (    69.06962 Ang^3 )
     density =      5.68600 g/cm^3

CELL_PARAMETERS (alat=  1.88972599)
   0.000000000  -3.251449556   3.251449556
   0.000000000   3.251449556   3.251449556
  -3.266653914   0.000000000   0.000000000

ATOMIC_POSITIONS (angstrom)
Ti      -3.266653914   0.000000000   3.251449556
[...]
     Harris-Foulkes estimate   =    -468.08372019 Ry
     estimated scf accuracy    <       1.55415348 Ry

     iteration #  7     ecut=    50.00 Ry     beta= 0.60
     Davidson diagonalization with overlap
     ethr =  6.44E-04,  avg # of iterations =  2.0

     total cpu time spent up to now is     6232.9 secs

     total energy              =    -468.09549841 Ry
     Harris-Foulkes estimate   =    -468.21700500 Ry
     estimated scf accuracy    <       2.05053807 Ry

     iteration #  8     ecut=    50.00 Ry     beta= 0.60
     Davidson diagonalization with overlap
     ethr =  6.44E-04,  avg # of iterations =  1.0

     total cpu time spent up to now is     6242.4 secs

     total energy              =    -468.02208515 Ry
     Harris-Foulkes estimate   =    -468.10077592 Ry
     estimated scf accuracy    <       1.71932712 Ry

     iteration #  9     ecut=    50.00 Ry     beta= 0.60
     Davidson diagonalization with overlap
     ethr =  6.44E-04,  avg # of iterations =  1.5

     total cpu time spent up to now is     6252.4 secs

     total energy              =    -467.95086323 Ry
     Harris-Foulkes estimate   =    -468.02556257 Ry
     estimated scf accuracy    <       1.42735362 Ry

     iteration # 10     ecut=    50.00 Ry     beta= 0.60
     Davidson diagonalization with overlap
     ethr =  6.44E-04,  avg # of iterations =  1.7

     total cpu time spent up to now is     6262.5 secs

     total energy              =    -467.90126403 Ry
     Harris-Foulkes estimate   =    -467.95783111 Ry
     estimated scf accuracy    <       0.99713726 Ry

     iteration # 11     ecut=    50.00 Ry     beta= 0.60
     Davidson diagonalization with overlap
     ethr =  6.44E-04,  avg # of iterations =  1.8

     total cpu time spent up to now is     6272.6 secs

     total energy              =    -467.87910759 Ry
     Harris-Foulkes estimate   =    -467.90755690 Ry
     estimated scf accuracy    <       0.69650982 Ry

     iteration # 12     ecut=    50.00 Ry     beta= 0.60
     Davidson diagonalization with overlap
     ethr =  6.44E-04,  avg # of iterations =  2.3

     total cpu time spent up to now is     6283.1 secs

     total energy              =    -467.88265979 Ry
     Harris-Foulkes estimate   =    -467.88617417 Ry
     estimated scf accuracy    <       0.44532673 Ry

     iteration # 13     ecut=    50.00 Ry     beta= 0.60
     Davidson diagonalization with overlap
     ethr =  6.44E-04,  avg # of iterations =  1.1

     total cpu time spent up to now is     6292.8 secs

     total energy              =    -467.75373250 Ry
     Harris-Foulkes estimate   =    -467.88508507 Ry
     estimated scf accuracy    <       0.40037568 Ry

     iteration # 14     ecut=    50.00 Ry     beta= 0.60
     Davidson diagonalization with overlap
     ethr =  6.44E-04,  avg # of iterations =  4.9

     total cpu time spent up to now is     6309.3 secs

     total energy              =    -467.97303132 Ry
     Harris-Foulkes estimate   =    -467.97333022 Ry
     estimated scf accuracy    <       2.09224359 Ry

     iteration # 15     ecut=    50.00 Ry     beta= 0.60
     Davidson diagonalization with overlap
     ethr =  6.44E-04,  avg # of iterations =  1.0

     total cpu time spent up to now is     6318.8 secs

     total energy              =    -467.94266111 Ry
     Harris-Foulkes estimate   =    -467.97331860 Ry
     estimated scf accuracy    <       2.08611311 Ry

     iteration # 16     ecut=    50.00 Ry     beta= 0.60
     Davidson diagonalization with overlap
     ethr =  6.44E-04,  avg # of iterations =  1.0

     total cpu time spent up to now is     6328.4 secs

     total energy              =    -467.95677306 Ry
     Harris-Foulkes estimate   =    -467.94458455 Ry
     estimated scf accuracy    <       1.56969938 Ry

     iteration # 17     ecut=    50.00 Ry     beta= 0.60
     Davidson diagonalization with overlap
     ethr =  6.44E-04,  avg # of iterations =  1.0

     total cpu time spent up to now is     6337.9 secs

     total energy              =    -467.94229316 Ry
     Harris-Foulkes estimate   =    -467.95730863 Ry
     estimated scf accuracy    <       1.79741735 Ry

     iteration # 18     ecut=    50.00 Ry     beta= 0.60
     Davidson diagonalization with overlap
     ethr =  6.44E-04,  avg # of iterations =  1.0

     total cpu time spent up to now is     6347.4 secs

     total energy              =    -467.82121149 Ry
     Harris-Foulkes estimate   =    -467.94290165 Ry
     estimated scf accuracy    <       1.52749643 Ry

     iteration # 19     ecut=    50.00 Ry     beta= 0.60
     Davidson diagonalization with overlap
     ethr =  6.44E-04,  avg # of iterations =  3.2

     total cpu time spent up to now is     6358.8 secs

     total energy              =    -467.87610047 Ry
     Harris-Foulkes estimate   =    -467.87127006 Ry
     estimated scf accuracy    <       0.07705998 Ry

     iteration # 20     ecut=    50.00 Ry     beta= 0.60
     Davidson diagonalization with overlap
     ethr =  1.57E-04,  avg # of iterations =  3.2

     total cpu time spent up to now is     6370.1 secs

     total energy              =    -467.86576368 Ry
     Harris-Foulkes estimate   =    -467.87975055 Ry
     estimated scf accuracy    <       0.14962625 Ry

     iteration # 21     ecut=    50.00 Ry     beta= 0.60
     Davidson diagonalization with overlap
     ethr =  1.57E-04,  avg # of iterations =  2.2

     total cpu time spent up to now is     6380.4 secs

     total energy              =    -467.87201991 Ry
     Harris-Foulkes estimate   =    -467.87196545 Ry
     estimated scf accuracy    <       0.02179775 Ry

     iteration # 22     ecut=    50.00 Ry     beta= 0.60
     Davidson diagonalization with overlap
     ethr =  4.45E-05,  avg # of iterations =  5.8

     total cpu time spent up to now is     6394.4 secs

     total energy              =    -467.87351055 Ry
     Harris-Foulkes estimate   =    -467.87378847 Ry
     estimated scf accuracy    <       0.02649192 Ry

     iteration # 23     ecut=    50.00 Ry     beta= 0.60
     Davidson diagonalization with overlap
     ethr =  4.45E-05,  avg # of iterations =  1.0

     total cpu time spent up to now is     6403.8 secs

     total energy              =    -467.87010184 Ry
     Harris-Foulkes estimate   =    -467.87363717 Ry
     estimated scf accuracy    <       0.02447414 Ry

     iteration # 24     ecut=    50.00 Ry     beta= 0.60
     Davidson diagonalization with overlap
     ethr =  4.45E-05,  avg # of iterations =  1.5

     total cpu time spent up to now is     6413.5 secs

     total energy              =    -467.87089715 Ry
     Harris-Foulkes estimate   =    -467.87074013 Ry
     estimated scf accuracy    <       0.00971344 Ry

     iteration # 25     ecut=    50.00 Ry     beta= 0.60
     Davidson diagonalization with overlap
     ethr =  1.98E-05,  avg # of iterations =  1.8

     total cpu time spent up to now is     6423.3 secs

     total energy              =    -467.87128421 Ry
     Harris-Foulkes estimate   =    -467.87105746 Ry
     estimated scf accuracy    <       0.01094148 Ry

     iteration # 26     ecut=    50.00 Ry     beta= 0.60
     Davidson diagonalization with overlap
     ethr =  1.98E-05,  avg # of iterations =  1.0

     total cpu time spent up to now is     6432.6 secs

     total energy              =    -467.87110501 Ry
     Harris-Foulkes estimate   =    -467.87136110 Ry
     estimated scf accuracy    <       0.01250573 Ry

     iteration # 27     ecut=    50.00 Ry     beta= 0.60
     Davidson diagonalization with overlap
     ethr =  1.98E-05,  avg # of iterations =  1.0

     total cpu time spent up to now is     6442.0 secs

     total energy              =    -467.86913675 Ry
     Harris-Foulkes estimate   =    -467.87118364 Ry
     estimated scf accuracy    <       0.00939206 Ry

     iteration # 28     ecut=    50.00 Ry     beta= 0.60
     Davidson diagonalization with overlap
     ethr =  1.92E-05,  avg # of iterations =  5.4

     total cpu time spent up to now is     6456.8 secs

     total energy              =    -467.87111273 Ry
     Harris-Foulkes estimate   =    -467.87154139 Ry
     estimated scf accuracy    <       0.01008291 Ry

     iteration # 29     ecut=    50.00 Ry     beta= 0.60
     Davidson diagonalization with overlap
     ethr =  1.92E-05,  avg # of iterations =  1.1

     total cpu time spent up to now is     6466.1 secs

     total energy              =    -467.87013182 Ry
     Harris-Foulkes estimate   =    -467.87141428 Ry
     estimated scf accuracy    <       0.00819836 Ry

     iteration # 30     ecut=    50.00 Ry     beta= 0.60
     Davidson diagonalization with overlap
     ethr =  1.67E-05,  avg # of iterations =  1.0

     total cpu time spent up to now is     6475.4 secs

     total energy              =    -467.86979335 Ry
     Harris-Foulkes estimate   =    -467.87036974 Ry
     estimated scf accuracy    <       0.00251215 Ry

     iteration # 31     ecut=    50.00 Ry     beta= 0.60
     Davidson diagonalization with overlap
     ethr =  5.13E-06,  avg # of iterations =  4.6

     total cpu time spent up to now is     6489.0 secs

     total energy              =    -467.87017190 Ry
     Harris-Foulkes estimate   =    -467.87023896 Ry
     estimated scf accuracy    <       0.00054650 Ry

     iteration # 32     ecut=    50.00 Ry     beta= 0.60
     Davidson diagonalization with overlap
     ethr =  1.12E-06,  avg # of iterations =  2.2

     total cpu time spent up to now is     6499.3 secs

     total energy              =    -467.87017504 Ry
     Harris-Foulkes estimate   =    -467.87019038 Ry
     estimated scf accuracy    <       0.00023767 Ry

     iteration # 33     ecut=    50.00 Ry     beta= 0.60
     Davidson diagonalization with overlap
     ethr =  4.85E-07,  avg # of iterations =  2.1

     total cpu time spent up to now is     6509.4 secs

     total energy              =    -467.87014605 Ry
     Harris-Foulkes estimate   =    -467.87018314 Ry
     estimated scf accuracy    <       0.00024674 Ry

     iteration # 34     ecut=    50.00 Ry     beta= 0.60
     Davidson diagonalization with overlap
     ethr =  4.85E-07,  avg # of iterations =  1.6

     total cpu time spent up to now is     6519.2 secs

     total energy              =    -467.87014172 Ry
     Harris-Foulkes estimate   =    -467.87015505 Ry
     estimated scf accuracy    <       0.00007762 Ry

     iteration # 35     ecut=    50.00 Ry     beta= 0.60
     Davidson diagonalization with overlap
     ethr =  1.58E-07,  avg # of iterations =  3.8

     total cpu time spent up to now is     6531.8 secs

     total energy              =    -467.87015400 Ry
     Harris-Foulkes estimate   =    -467.87015493 Ry
     estimated scf accuracy    <       0.00000299 Ry

     iteration # 36     ecut=    50.00 Ry     beta= 0.60
     Davidson diagonalization with overlap
     ethr =  6.10E-09,  avg # of iterations =  4.7

     total cpu time spent up to now is     6546.3 secs

     total energy              =    -467.87015497 Ry
     Harris-Foulkes estimate   =    -467.87015499 Ry
     estimated scf accuracy    <       0.00000049 Ry

     iteration # 37     ecut=    50.00 Ry     beta= 0.60
     Davidson diagonalization with overlap
     c_bands:  1 eigenvalues not converged
     ethr =  9.93E-10,  avg # of iterations =  2.8

     total cpu time spent up to now is     6557.3 secs

     total energy              =    -467.87015491 Ry
     Harris-Foulkes estimate   =    -467.87015501 Ry
     estimated scf accuracy    <       0.00000053 Ry

     iteration # 38     ecut=    50.00 Ry     beta= 0.60
     Davidson diagonalization with overlap
     ethr =  9.93E-10,  avg # of iterations =  2.2

     total cpu time spent up to now is     6567.5 secs

     total energy              =    -467.87015492 Ry
     Harris-Foulkes estimate   =    -467.87015494 Ry
     estimated scf accuracy    <       0.00000011 Ry

     iteration # 39     ecut=    50.00 Ry     beta= 0.60
     Davidson diagonalization with overlap
     ethr =  2.32E-10,  avg # of iterations =  4.3

     total cpu time spent up to now is     6581.7 secs

     total energy              =    -467.87015495 Ry
     Harris-Foulkes estimate   =    -467.87015495 Ry
     estimated scf accuracy    <       0.00000002 Ry

     iteration # 40     ecut=    50.00 Ry     beta= 0.60
     Davidson diagonalization with overlap
     ethr =  5.02E-11,  avg # of iterations =  1.8

     total cpu time spent up to now is     6591.5 secs

     total energy              =    -467.87015494 Ry
     Harris-Foulkes estimate   =    -467.87015495 Ry
     estimated scf accuracy    <       0.00000001 Ry

     iteration # 41     ecut=    50.00 Ry     beta= 0.60
     Davidson diagonalization with overlap
     ethr =  2.34E-11,  avg # of iterations =  4.0

     total cpu time spent up to now is     6604.9 secs

     total energy              =    -467.87015495 Ry
     Harris-Foulkes estimate   =    -467.87015495 Ry
     estimated scf accuracy    <          6.5E-09 Ry

     iteration # 42     ecut=    50.00 Ry     beta= 0.60
     Davidson diagonalization with overlap
     ethr =  1.32E-11,  avg # of iterations =  1.2

     total cpu time spent up to now is     6614.4 secs

     total energy              =    -467.87015495 Ry
     Harris-Foulkes estimate   =    -467.87015495 Ry
     estimated scf accuracy    <          1.4E-09 Ry

     iteration # 43     ecut=    50.00 Ry     beta= 0.60
     Davidson diagonalization with overlap
     ethr =  2.76E-12,  avg # of iterations =  4.2

     total cpu time spent up to now is     6628.5 secs

     total energy              =    -467.87015495 Ry
     Harris-Foulkes estimate   =    -467.87015495 Ry
     estimated scf accuracy    <          1.3E-09 Ry

     iteration # 44     ecut=    50.00 Ry     beta= 0.60
     Davidson diagonalization with overlap
     ethr =  2.60E-12,  avg # of iterations =  1.0

     total cpu time spent up to now is     6638.0 secs

     total energy              =    -467.87015495 Ry
     Harris-Foulkes estimate   =    -467.87015495 Ry
     estimated scf accuracy    <          7.9E-10 Ry

     iteration # 45     ecut=    50.00 Ry     beta= 0.60
     Davidson diagonalization with overlap
     ethr =  1.62E-12,  avg # of iterations =  2.6

     total cpu time spent up to now is     6648.8 secs

     total energy              =    -467.87015495 Ry
     Harris-Foulkes estimate   =    -467.87015495 Ry
     estimated scf accuracy    <          1.5E-10 Ry

     iteration # 46     ecut=    50.00 Ry     beta= 0.60
     Davidson diagonalization with overlap
     ethr =  3.16E-13,  avg # of iterations =  3.8

     total cpu time spent up to now is     6661.2 secs

     total energy              =    -467.87015495 Ry
     Harris-Foulkes estimate   =    -467.87015495 Ry
     estimated scf accuracy    <          3.7E-11 Ry

     iteration # 47     ecut=    50.00 Ry     beta= 0.60
     Davidson diagonalization with overlap
     ethr =  1.00E-13,  avg # of iterations =  3.1

     total cpu time spent up to now is     6672.3 secs

     total energy              =    -467.87015495 Ry
     Harris-Foulkes estimate   =    -467.87015495 Ry
     estimated scf accuracy    <          1.5E-11 Ry

     iteration # 48     ecut=    50.00 Ry     beta= 0.60
     Davidson diagonalization with overlap
     ethr =  1.00E-13,  avg # of iterations =  1.0

     total cpu time spent up to now is     6681.9 secs

     total energy              =    -467.87015495 Ry
     Harris-Foulkes estimate   =    -467.87015495 Ry
     estimated scf accuracy    <          5.6E-12 Ry

     iteration # 49     ecut=    50.00 Ry     beta= 0.60
     Davidson diagonalization with overlap
     ethr =  1.00E-13,  avg # of iterations =  1.7

     total cpu time spent up to now is     6691.7 secs

     End of self-consistent calculation

     Number of k-points >= 100: set verbosity='high' to print the bands.

     the Fermi energy is    14.6081 ev

!    total energy              =    -467.87015495 Ry
     Harris-Foulkes estimate   =    -467.87015495 Ry
     estimated scf accuracy    <          2.2E-13 Ry

     The total energy is the sum of the following terms:

     one-electron contribution =    -138.40740214 Ry
     hartree contribution      =      87.67869557 Ry
     xc contribution           =     -62.07693166 Ry
     ewald contribution        =    -355.06372157 Ry
     smearing contrib. (-TS)   =      -0.00079515 Ry

     convergence has been achieved in  49 iterations

     Forces acting on atoms (cartesian axes, Ry/au):

     atom    1 type  2   force =     0.00000000    0.00000000    0.00000000
     atom    2 type  2   force =     0.00000000    0.00000000    0.00000000
     atom    3 type  2   force =     0.00000000    0.00000000    0.00000000
     atom    4 type  1   force =     0.00000000   -0.00000000   -0.00000000

     Total force =     0.000000     Total SCF correction =     0.000000


     Computing stress (Cartesian axis) and pressure

          total   stress  (Ry/bohr**3)                   (kbar)     P=   -0.18
  -0.00000225   0.00000000   0.00000000         -0.33      0.00      0.00
   0.00000000  -0.00000075   0.00000000          0.00     -0.11      0.00
   0.00000000   0.00000000  -0.00000075          0.00      0.00     -0.11

 
     init_run     :     12.75s CPU     13.09s WALL (       2 calls)
     electrons    :   6260.21s CPU   6513.21s WALL (      18 calls)
     update_pot   :     22.97s CPU     23.30s WALL (      16 calls)
     forces       :     38.98s CPU     41.07s WALL (      18 calls)
     stress       :     95.27s CPU    100.64s WALL (      18 calls)

     Called by init_run:
     wfcinit      :     10.89s CPU     11.13s WALL (       2 calls)
     potinit      :      0.50s CPU      0.53s WALL (       2 calls)
     hinit0       :      1.07s CPU      1.09s WALL (       2 calls)

     Called by electrons:
     c_bands      :   5286.78s CPU   5450.30s WALL (     421 calls)
     sum_band     :    898.60s CPU    952.79s WALL (     421 calls)
     v_of_rho     :     13.59s CPU     13.84s WALL (     430 calls)
     newd         :     61.43s CPU     95.13s WALL (     430 calls)
     mix_rho      :      1.92s CPU      1.94s WALL (     421 calls)

     Called by c_bands:
     init_us_2    :    109.65s CPU    112.03s WALL (  221760 calls)
     cegterg      :   4703.31s CPU   4836.90s WALL (  106092 calls)

     Called by sum_band:
     sum_band:bec :      1.94s CPU      2.10s WALL (  106092 calls)
     addusdens    :     71.87s CPU    102.09s WALL (     421 calls)

     Called by *egterg:
     h_psi        :   3308.20s CPU   3419.79s WALL (  437972 calls)
     s_psi        :    139.59s CPU    141.72s WALL (  437972 calls)
     g_psi        :     32.53s CPU     33.12s WALL (  331376 calls)
     cdiaghg      :    715.15s CPU    727.02s WALL (  431168 calls)

     Called by h_psi:
     h_psi:pot    :   3297.11s CPU   3407.88s WALL (  437972 calls)
     h_psi:calbec :    151.80s CPU    155.19s WALL (  437972 calls)
     vloc_psi     :   3004.48s CPU   3107.91s WALL (  437972 calls)
     add_vuspsi   :    139.05s CPU    142.45s WALL (  437972 calls)

     General routines
     calbec       :    219.00s CPU    223.24s WALL (  566744 calls)
     fft          :      9.12s CPU      9.33s WALL (    6047 calls)
     ffts         :      0.30s CPU      0.32s WALL (     851 calls)
     fftw         :   3309.70s CPU   3416.73s WALL (18892318 calls)
     interpolate  :      0.78s CPU      0.80s WALL (     430 calls)
 
     Parallel routines
     fft_scatt_xy :    548.88s CPU    576.09s WALL (18899216 calls)
     fft_scatt_yz :    770.81s CPU    775.45s WALL (18899216 calls)
 
     PWSCF        :     1h47m CPU       47h 1m WALL

      51h
 
   This run was terminated on:  11:17:36   4Feb2020            

=------------------------------------------------------------------------------=
   JOB DONE.
=------------------------------------------------------------------------------=
