
     Program PWSCF v.6.3MaX starts on 25Feb2020 at 15: 6:27 

     This program is part of the open-source Quantum ESPRESSO suite
     for quantum simulation of materials; please cite
         "P. Giannozzi et al., J. Phys.:Condens. Matter 21 395502 (2009);
         "P. Giannozzi et al., J. Phys.:Condens. Matter 29 465901 (2017);
          URL http://www.quantum-espresso.org", 
     in publications or presentations arising from this work. More details at
     http://www.quantum-espresso.org/quote

     Parallel version (MPI), running on     4 processors

     MPI processes distributed on     1 nodes
     R & G space division:  proc/nbgrp/npool/nimage =       4
     Waiting for input...
     Reading input from standard input

     Current dimensions of program PWSCF are:
     Max number of different atomic species (ntypx) = 10
     Max number of k-points (npk) =  40000
     Max angular momentum in pseudopotentials (lmaxx) =  3
     Message from routine iosys:
     minimal I/O required, wf_collect reset to FALSE

     Subspace diagonalization in iterative solution of the eigenvalue problem:
     a serial algorithm will be used

 
     Parallelization info
     --------------------
     sticks:   dense  smooth     PW     G-vecs:    dense   smooth      PW
     Min         621     246     75                41578    10500    1730
     Max         622     247     76                41582    10501    1734
     Sum        2487     985    301               166321    42003    6925
 


     bravais-lattice index     =            0
     lattice parameter (alat)  =       1.8897  a.u.
     unit-cell volume          =     880.0102 (a.u.)^3
     number of atoms/cell      =            6
     number of atomic types    =            2
     number of electrons       =        73.00
     number of Kohn-Sham states=           44
     kinetic-energy cutoff     =      50.0000  Ry
     charge density cutoff     =     500.0000  Ry
     convergence threshold     =      1.0E-10
     mixing beta               =       0.6000
     number of iterations used =            8  plain     mixing
     Exchange-correlation      = SLA PW PBE PBE ( 1  4  3  4 0 0)
     nstep                     =           50


     celldm(1)=   1.889726  celldm(2)=   0.000000  celldm(3)=   0.000000
     celldm(4)=   0.000000  celldm(5)=   0.000000  celldm(6)=   0.000000

     crystal axes: (cart. coord. in units of alat)
               a(1) = (  -1.758031  -1.758031  -1.758031 )  
               a(2) = (   1.758031   1.758031  -5.274095 )  
               a(3) = (   5.274095  -5.274095  -1.758031 )  

     reciprocal axes: (cart. coord. in units 2 pi/alat)
               b(1) = ( -0.237008 -0.189606 -0.142205 )  
               b(2) = (  0.047402  0.094803 -0.142205 )  
               b(3) = (  0.094803 -0.094803  0.000000 )  


     PseudoPot. # 1 for Nb read from file:
     ./Nb.pbe-nsp-van.UPF
     MD5 check sum: 0a22fc7fb0ba19a08ca5db297a5d2854
     Pseudo is Ultrasoft + core correction, Zval = 13.0
     Generated by new atomic code, or converted to UPF format
     Using radial grid of  887 points,  6 beta functions with: 
                l(1) =   0
                l(2) =   0
                l(3) =   1
                l(4) =   1
                l(5) =   2
                l(6) =   2
     Q(r) pseudized with  6 coefficients,  rinner =    1.000   1.000   1.000
                                                       1.000   1.000

     PseudoPot. # 2 for Ti read from file:
     ./Ti.pbe-sp-van_ak.UPF
     MD5 check sum: f98fea3e8887528921fefa5636a534ca
     Pseudo is Ultrasoft, Zval = 12.0
     Generated by new atomic code, or converted to UPF format
     Using radial grid of  851 points,  6 beta functions with: 
                l(1) =   0
                l(2) =   0
                l(3) =   1
                l(4) =   1
                l(5) =   2
                l(6) =   2
     Q(r) pseudized with  8 coefficients,  rinner =    1.000   1.000   1.000
                                                       1.000   1.000

     atomic species   valence    mass     pseudopotential
        Nb            13.00    92.90638     Nb( 1.00)
        Ti            12.00    47.86700     Ti( 1.00)

      2 Sym. Ops., with inversion, found



   Cartesian axes

     site n.     atom                  positions (alat units)
         1           Ti  tau(   1) = (   3.5160633  -3.5160633  -7.0321265  )
         2           Ti  tau(   2) = (   1.7580316  -1.7580316  -5.2740949  )
         3           Ti  tau(   3) = (   5.2740949  -5.2740949  -5.2740949  )
         4           Ti  tau(   4) = (   3.5160633  -3.5160633  -3.5160633  )
         5           Ti  tau(   5) = (   1.7580316  -1.7580316  -1.7580316  )
         6           Nb  tau(   6) = (   5.2740949  -5.2740949  -8.7901582  )

     number of k points=   762  Marzari-Vanderbilt smearing, width (Ry)=  0.0200

     Number of k-points >= 100: set verbosity='high' to print them.

     Dense  grid:   166321 G-vectors     FFT dimensions: (  45,  80, 108)

     Smooth grid:    42003 G-vectors     FFT dimensions: (  25,  50,  72)

     Estimated max dynamical RAM per process >     830.44 MB

     Estimated total dynamical RAM >       3.24 GB

     Initial potential from superposition of free atoms

     starting charge   67.99705, renormalised to   73.00000
     Starting wfcs are   63 randomized atomic wfcs

     total cpu time spent up to now is       46.3 secs

     Self-consistent Calculation

     iteration #  1     ecut=    50.00 Ry     beta= 0.60
     Davidson diagonalization with overlap
     ethr =  1.00E-02,  avg # of iterations =  4.1

     total cpu time spent up to now is      181.4 secs

     total energy              =    -688.79286103 Ry
     Harris-Foulkes estimate   =    -704.06478763 Ry
     estimated scf accuracy    <      19.22098943 Ry

     iteration #  2     ecut=    50.00 Ry     beta= 0.60
     Davidson diagonalization with overlap
     ethr =  1.00E-02,  avg # of iterations =  6.0

     total cpu time spent up to now is      360.3 secs

     total energy              =    -695.63523192 Ry
     Harris-Foulkes estimate   =    -737.34250605 Ry
     estimated scf accuracy    <     154.12222186 Ry

     iteration #  3     ecut=    50.00 Ry     beta= 0.60
     Davidson diagonalization with overlap
     ethr =  1.00E-02,  avg # of iterations =  5.5

     total cpu time spent up to now is      518.6 secs

     total energy              =    -699.66828476 Ry
     Harris-Foulkes estimate   =    -703.54571022 Ry
     estimated scf accuracy    <      21.98952361 Ry

     iteration #  4     ecut=    50.00 Ry     beta= 0.60
     Davidson diagonalization with overlap
     ethr =  1.00E-02,  avg # of iterations =  4.0

     total cpu time spent up to now is      624.2 secs

     total energy              =    -700.79283983 Ry
     Harris-Foulkes estimate   =    -701.37801517 Ry
     estimated scf accuracy    <       3.42944736 Ry

     iteration #  5     ecut=    50.00 Ry     beta= 0.60
     Davidson diagonalization with overlap
     ethr =  4.70E-03,  avg # of iterations =  2.3

     total cpu time spent up to now is      710.9 secs

     total energy              =    -700.80947357 Ry
     Harris-Foulkes estimate   =    -701.05223696 Ry
     estimated scf accuracy    <       0.99612474 Ry

     iteration #  6     ecut=    50.00 Ry     beta= 0.60
     Davidson diagonalization with overlap
     ethr =  1.36E-03,  avg # of iterations =  6.2

     total cpu time spent up to now is      857.8 secs

     total energy              =    -700.70548827 Ry
     Harris-Foulkes estimate   =    -701.25460698 Ry
     estimated scf accuracy    <       4.33945623 Ry

     iteration #  7     ecut=    50.00 Ry     beta= 0.60
     Davidson diagonalization with overlap
     ethr =  1.36E-03,  avg # of iterations =  6.5

     total cpu time spent up to now is      983.6 secs

     total energy              =    -700.96798673 Ry
     Harris-Foulkes estimate   =    -701.27611850 Ry
     estimated scf accuracy    <       4.97824839 Ry

     iteration #  8     ecut=    50.00 Ry     beta= 0.60
     Davidson diagonalization with overlap
     ethr =  1.36E-03,  avg # of iterations =  1.4

     total cpu time spent up to now is     1064.6 secs

     total energy              =    -701.04973815 Ry
     Harris-Foulkes estimate   =    -701.05313144 Ry
     estimated scf accuracy    <       0.94607889 Ry

     iteration #  9     ecut=    50.00 Ry     beta= 0.60
     Davidson diagonalization with overlap
     ethr =  1.30E-03,  avg # of iterations =  1.0

     total cpu time spent up to now is     1144.0 secs

     total energy              =    -700.91178961 Ry
     Harris-Foulkes estimate   =    -701.07185096 Ry
     estimated scf accuracy    <       1.71816525 Ry

     iteration # 10     ecut=    50.00 Ry     beta= 0.60
     Davidson diagonalization with overlap
     ethr =  1.30E-03,  avg # of iterations =  1.8

     total cpu time spent up to now is     1227.2 secs

     total energy              =    -701.01249847 Ry
     Harris-Foulkes estimate   =    -701.02005165 Ry
     estimated scf accuracy    <       0.19752186 Ry

     iteration # 11     ecut=    50.00 Ry     beta= 0.60
     Davidson diagonalization with overlap
     ethr =  2.71E-04,  avg # of iterations =  6.2

     total cpu time spent up to now is     1355.9 secs

     total energy              =    -701.03245335 Ry
     Harris-Foulkes estimate   =    -701.04590229 Ry
     estimated scf accuracy    <       0.30824888 Ry

     iteration # 12     ecut=    50.00 Ry     beta= 0.60
     Davidson diagonalization with overlap
     ethr =  2.71E-04,  avg # of iterations =  1.1

     total cpu time spent up to now is     1436.3 secs

     total energy              =    -701.03090030 Ry
     Harris-Foulkes estimate   =    -701.03610299 Ry
     estimated scf accuracy    <       0.09387741 Ry

     iteration # 13     ecut=    50.00 Ry     beta= 0.60
     Davidson diagonalization with overlap
     ethr =  1.29E-04,  avg # of iterations =  1.3

     total cpu time spent up to now is     1517.3 secs

     total energy              =    -701.03275066 Ry
     Harris-Foulkes estimate   =    -701.03338143 Ry
     estimated scf accuracy    <       0.01051817 Ry

     iteration # 14     ecut=    50.00 Ry     beta= 0.60
     Davidson diagonalization with overlap
     ethr =  1.44E-05,  avg # of iterations =  8.4

     total cpu time spent up to now is     1683.2 secs

     total energy              =    -701.03560247 Ry
     Harris-Foulkes estimate   =    -701.03587718 Ry
     estimated scf accuracy    <       0.00511165 Ry

     iteration # 15     ecut=    50.00 Ry     beta= 0.60
     Davidson diagonalization with overlap
     ethr =  7.00E-06,  avg # of iterations =  1.0

     total cpu time spent up to now is     1763.1 secs

     total energy              =    -701.03562288 Ry
     Harris-Foulkes estimate   =    -701.03566263 Ry
     estimated scf accuracy    <       0.00213284 Ry

     iteration # 16     ecut=    50.00 Ry     beta= 0.60
     Davidson diagonalization with overlap
     c_bands:  1 eigenvalues not converged
     ethr =  2.92E-06,  avg # of iterations =  1.1

     total cpu time spent up to now is     1842.7 secs

     total energy              =    -701.03555614 Ry
     Harris-Foulkes estimate   =    -701.03563948 Ry
     estimated scf accuracy    <       0.00200982 Ry

     iteration # 17     ecut=    50.00 Ry     beta= 0.60
     Davidson diagonalization with overlap
     ethr =  2.75E-06,  avg # of iterations =  1.0

     total cpu time spent up to now is     1922.0 secs

     total energy              =    -701.03553838 Ry
     Harris-Foulkes estimate   =    -701.03558050 Ry
     estimated scf accuracy    <       0.00079939 Ry

     iteration # 18     ecut=    50.00 Ry     beta= 0.60
     Davidson diagonalization with overlap
     ethr =  1.10E-06,  avg # of iterations =  3.7

     total cpu time spent up to now is     2017.5 secs

     total energy              =    -701.03559384 Ry
     Harris-Foulkes estimate   =    -701.03559452 Ry
     estimated scf accuracy    <       0.00007440 Ry

     iteration # 19     ecut=    50.00 Ry     beta= 0.60
     Davidson diagonalization with overlap
     c_bands:  1 eigenvalues not converged
     c_bands:  1 eigenvalues not converged
     c_bands:  1 eigenvalues not converged
     c_bands:  1 eigenvalues not converged
     c_bands:  1 eigenvalues not converged
     c_bands:  1 eigenvalues not converged
     c_bands:  1 eigenvalues not converged
     ethr =  1.02E-07,  avg # of iterations =  5.9

     total cpu time spent up to now is     2146.5 secs

     total energy              =    -701.03560936 Ry
     Harris-Foulkes estimate   =    -701.03561437 Ry
     estimated scf accuracy    <       0.00003493 Ry

     iteration # 20     ecut=    50.00 Ry     beta= 0.60
     Davidson diagonalization with overlap
     c_bands:  1 eigenvalues not converged
     ethr =  4.78E-08,  avg # of iterations =  2.6

     total cpu time spent up to now is     2234.4 secs

     total energy              =    -701.03561209 Ry
     Harris-Foulkes estimate   =    -701.03561239 Ry
     estimated scf accuracy    <       0.00000237 Ry

     iteration # 21     ecut=    50.00 Ry     beta= 0.60
     Davidson diagonalization with overlap
     ethr =  3.24E-09,  avg # of iterations =  5.4

     total cpu time spent up to now is     2371.5 secs

     total energy              =    -701.03561285 Ry
     Harris-Foulkes estimate   =    -701.03561398 Ry
     estimated scf accuracy    <       0.00001726 Ry

     iteration # 22     ecut=    50.00 Ry     beta= 0.60
     Davidson diagonalization with overlap
     ethr =  3.24E-09,  avg # of iterations =  3.0

     total cpu time spent up to now is     2461.7 secs

     total energy              =    -701.03561268 Ry
     Harris-Foulkes estimate   =    -701.03561311 Ry
     estimated scf accuracy    <       0.00000490 Ry

     iteration # 23     ecut=    50.00 Ry     beta= 0.60
     Davidson diagonalization with overlap
     ethr =  3.24E-09,  avg # of iterations =  3.7

     total cpu time spent up to now is     2561.9 secs

     total energy              =    -701.03561291 Ry
     Harris-Foulkes estimate   =    -701.03561295 Ry
     estimated scf accuracy    <       0.00000049 Ry

     iteration # 24     ecut=    50.00 Ry     beta= 0.60
     Davidson diagonalization with overlap
     ethr =  6.71E-10,  avg # of iterations =  4.5

     total cpu time spent up to now is     2669.7 secs

     total energy              =    -701.03561296 Ry
     Harris-Foulkes estimate   =    -701.03561297 Ry
     estimated scf accuracy    <       0.00000006 Ry

     iteration # 25     ecut=    50.00 Ry     beta= 0.60
     Davidson diagonalization with overlap
     ethr =  7.61E-11,  avg # of iterations =  4.7

     total cpu time spent up to now is     2788.1 secs

     total energy              =    -701.03561298 Ry
     Harris-Foulkes estimate   =    -701.03561297 Ry
     estimated scf accuracy    <       0.00000002 Ry

     iteration # 26     ecut=    50.00 Ry     beta= 0.60
     Davidson diagonalization with overlap
     ethr =  3.31E-11,  avg # of iterations =  2.7

     total cpu time spent up to now is     2878.1 secs

     total energy              =    -701.03561298 Ry
     Harris-Foulkes estimate   =    -701.03561298 Ry
     estimated scf accuracy    <       0.00000008 Ry

     iteration # 27     ecut=    50.00 Ry     beta= 0.60
     Davidson diagonalization with overlap
     ethr =  3.31E-11,  avg # of iterations =  1.0

     total cpu time spent up to now is     2957.8 secs

     total energy              =    -701.03561297 Ry
     Harris-Foulkes estimate   =    -701.03561298 Ry
     estimated scf accuracy    <       0.00000006 Ry

     iteration # 28     ecut=    50.00 Ry     beta= 0.60
     Davidson diagonalization with overlap
     ethr =  3.31E-11,  avg # of iterations =  1.9

     total cpu time spent up to now is     3042.1 secs

     total energy              =    -701.03561297 Ry
     Harris-Foulkes estimate   =    -701.03561297 Ry
     estimated scf accuracy    <          7.7E-09 Ry

     iteration # 29     ecut=    50.00 Ry     beta= 0.60
     Davidson diagonalization with overlap
     ethr =  1.06E-11,  avg # of iterations =  4.2

     total cpu time spent up to now is     3157.7 secs

     total energy              =    -701.03561297 Ry
     Harris-Foulkes estimate   =    -701.03561297 Ry
     estimated scf accuracy    <          2.3E-09 Ry

     iteration # 30     ecut=    50.00 Ry     beta= 0.60
     Davidson diagonalization with overlap
     ethr =  3.18E-12,  avg # of iterations =  1.7

     total cpu time spent up to now is     3240.6 secs

     total energy              =    -701.03561297 Ry
     Harris-Foulkes estimate   =    -701.03561297 Ry
     estimated scf accuracy    <          4.6E-10 Ry

     iteration # 31     ecut=    50.00 Ry     beta= 0.60
     Davidson diagonalization with overlap
     ethr =  6.28E-13,  avg # of iterations =  4.5

     total cpu time spent up to now is     3358.6 secs

     total energy              =    -701.03561297 Ry
     Harris-Foulkes estimate   =    -701.03561297 Ry
     estimated scf accuracy    <          1.7E-10 Ry

     iteration # 32     ecut=    50.00 Ry     beta= 0.60
     Davidson diagonalization with overlap
     ethr =  2.27E-13,  avg # of iterations =  1.2

     total cpu time spent up to now is     3439.2 secs

     End of self-consistent calculation

     Number of k-points >= 100: set verbosity='high' to print the bands.

     the Fermi energy is    10.6947 ev

!    total energy              =    -701.03561297 Ry
     Harris-Foulkes estimate   =    -701.03561297 Ry
     estimated scf accuracy    <          8.4E-11 Ry

     The total energy is the sum of the following terms:

     one-electron contribution =    -279.19562005 Ry
     hartree contribution      =     154.88548883 Ry
     xc contribution           =     -90.13039334 Ry
     ewald contribution        =    -486.59292296 Ry
     smearing contrib. (-TS)   =      -0.00216546 Ry

     convergence has been achieved in  32 iterations

     Forces acting on atoms (cartesian axes, Ry/au):

     atom    1 type  2   force =     0.00479584   -0.00394459   -0.00543340
     atom    2 type  2   force =    -0.00300540    0.00386019   -0.00545564
     atom    3 type  2   force =     0.00000000    0.00000000    0.00000000
     atom    4 type  2   force =     0.00300540   -0.00386019    0.00545564
     atom    5 type  2   force =    -0.00479584    0.00394459    0.00543340
     atom    6 type  1   force =     0.00000000    0.00000000    0.00000000

     Total force =     0.015606     Total SCF correction =     0.000021


     Computing stress (Cartesian axis) and pressure

          total   stress  (Ry/bohr**3)                   (kbar)     P= -177.90
  -0.00121126  -0.00000206  -0.00000428       -178.18     -0.30     -0.63
  -0.00000206  -0.00121201  -0.00000561         -0.30   -178.29     -0.83
  -0.00000428  -0.00000561  -0.00120473         -0.63     -0.83   -177.22


     BFGS Geometry Optimization

     number of scf cycles    =   1
     number of bfgs steps    =   0

     enthalpy new            =    -701.0356129727 Ry

     new trust radius        =       0.1797730455 bohr
     new conv_thr            =            1.0E-10 Ry

     new unit-cell volume =    802.58219 a.u.^3 (   118.93041 Ang^3 )
     density =      4.63885 g/cm^3

CELL_PARAMETERS (alat=  1.88972599)
  -1.704517225  -1.704425858  -1.704648162
   1.705269656   1.705412037  -5.115683096
   5.114846483  -5.114313040  -1.704907503

ATOMIC_POSITIONS (angstrom)
Ti       3.412986096  -3.410744079  -6.823002996
Ti       1.703908420  -1.702132245  -5.117990171
Ti       5.115222698  -5.113819950  -5.115073132
Ti       3.411690494  -3.411194615  -3.407248590
Ti       1.702612818  -1.702582782  -1.702235765
Nb       5.115598914  -5.113326861  -8.525238761


     NEW-OLD atomic charge density approx. for the potential
     extrapolated charge   66.44008, renormalised to   73.00000

     total cpu time spent up to now is     3484.1 secs

     Self-consistent Calculation

     iteration #  1     ecut=    50.00 Ry     beta= 0.60
     Davidson diagonalization with overlap
     c_bands:  2 eigenvalues not converged
     c_bands:  1 eigenvalues not converged
     c_bands:  1 eigenvalues not converged
     c_bands:  1 eigenvalues not converged
     c_bands:  1 eigenvalues not converged
     c_bands:  1 eigenvalues not converged
     c_bands:  1 eigenvalues not converged
     c_bands:  2 eigenvalues not converged
     c_bands:  1 eigenvalues not converged
     c_bands:  1 eigenvalues not converged
     c_bands:  2 eigenvalues not converged
     c_bands:  1 eigenvalues not converged
     c_bands:  1 eigenvalues not converged
     c_bands:  2 eigenvalues not converged
     c_bands:  3 eigenvalues not converged
     c_bands:  3 eigenvalues not converged
     c_bands:  3 eigenvalues not converged
     c_bands:  1 eigenvalues not converged
     c_bands:  1 eigenvalues not converged
     c_bands:  2 eigenvalues not converged
     c_bands:  1 eigenvalues not converged
     c_bands:  3 eigenvalues not converged
     c_bands:  1 eigenvalues not converged
     c_bands:  1 eigenvalues not converged
     c_bands:  1 eigenvalues not converged
     c_bands:  1 eigenvalues not converged
     c_bands:  1 eigenvalues not converged
     c_bands:  2 eigenvalues not converged
     c_bands:  2 eigenvalues not converged
     c_bands:  1 eigenvalues not converged
     c_bands:  2 eigenvalues not converged
     c_bands:  1 eigenvalues not converged
     c_bands:  1 eigenvalues not converged
     c_bands:  1 eigenvalues not converged
     c_bands:  1 eigenvalues not converged
     c_bands:  1 eigenvalues not converged
     c_bands:  1 eigenvalues not converged
     c_bands:  1 eigenvalues not converged
     c_bands:  2 eigenvalues not converged
     c_bands:  1 eigenvalues not converged
     c_bands:  1 eigenvalues not converged
     c_bands:  1 eigenvalues not converged
     c_bands:  2 eigenvalues not converged
     c_bands:  1 eigenvalues not converged
     c_bands:  1 eigenvalues not converged
     c_bands:  1 eigenvalues not converged
     c_bands:  1 eigenvalues not converged
     c_bands:  1 eigenvalues not converged
     c_bands:  1 eigenvalues not converged
     c_bands:  2 eigenvalues not converged
     c_bands:  1 eigenvalues not converged
     c_bands:  2 eigenvalues not converged
     c_bands:  1 eigenvalues not converged
     c_bands:  4 eigenvalues not converged
     c_bands:  3 eigenvalues not converged
     c_bands:  1 eigenvalues not converged
     c_bands:  2 eigenvalues not converged
     c_bands:  1 eigenvalues not converged
     c_bands:  1 eigenvalues not converged
     c_bands:  1 eigenvalues not converged
     c_bands:  1 eigenvalues not converged
     c_bands:  1 eigenvalues not converged
     c_bands:  1 eigenvalues not converged
     c_bands:  1 eigenvalues not converged
     c_bands:  1 eigenvalues not converged
     c_bands:  1 eigenvalues not converged
     c_bands:  2 eigenvalues not converged
     c_bands:  3 eigenvalues not converged
     c_bands:  3 eigenvalues not converged
     c_bands:  1 eigenvalues not converged
     c_bands:  1 eigenvalues not converged
     c_bands:  2 eigenvalues not converged
     c_bands:  3 eigenvalues not converged
     c_bands:  1 eigenvalues not converged
     c_bands:  2 eigenvalues not converged
     c_bands:  2 eigenvalues not converged
     c_bands:  1 eigenvalues not converged
     c_bands:  2 eigenvalues not converged
     c_bands:  2 eigenvalues not converged
     c_bands:  1 eigenvalues not converged
     ethr =  1.00E-06,  avg # of iterations = 15.5

     total cpu time spent up to now is     3834.2 secs

     total energy              =    -686.49075278 Ry
     Harris-Foulkes estimate   =    -719.34425088 Ry
     estimated scf accuracy    <      15.37313970 Ry

     iteration #  2     ecut=    50.00 Ry     beta= 0.60
     Davidson diagonalization with overlap
     ethr =  1.00E-02,  avg # of iterations =  5.1

     total cpu time spent up to now is     4007.0 secs

     total energy              =    -697.39263464 Ry
     Harris-Foulkes estimate   =    -719.58565956 Ry
     estimated scf accuracy    <      71.40117066 Ry

     iteration #  3     ecut=    50.00 Ry     beta= 0.60
     Davidson diagonalization with overlap
     ethr =  1.00E-02,  avg # of iterations =  5.0

     total cpu time spent up to now is     4140.0 secs

     total energy              =    -700.31238752 Ry
     Harris-Foulkes estimate   =    -705.95584013 Ry
     estimated scf accuracy    <      23.45881102 Ry

     iteration #  4     ecut=    50.00 Ry     beta= 0.60
     Davidson diagonalization with overlap
     ethr =  1.00E-02,  avg # of iterations =  3.8

     total cpu time spent up to now is     4247.0 secs

     total energy              =    -701.83748864 Ry
     Harris-Foulkes estimate   =    -703.45041402 Ry
     estimated scf accuracy    <      12.29383384 Ry

     iteration #  5     ecut=    50.00 Ry     beta= 0.60
     Davidson diagonalization with overlap
     ethr =  1.00E-02,  avg # of iterations =  1.0

     total cpu time spent up to now is     4326.7 secs

     total energy              =    -701.73797911 Ry
     Harris-Foulkes estimate   =    -702.13645258 Ry
     estimated scf accuracy    <       5.59287327 Ry

     iteration #  6     ecut=    50.00 Ry     beta= 0.60
     Davidson diagonalization with overlap
     ethr =  7.66E-03,  avg # of iterations =  1.0

     total cpu time spent up to now is     4406.3 secs

     total energy              =    -701.38275348 Ry
     Harris-Foulkes estimate   =    -701.79992998 Ry
     estimated scf accuracy    <       4.18759260 Ry

     iteration #  7     ecut=    50.00 Ry     beta= 0.60
     Davidson diagonalization with overlap
     ethr =  5.74E-03,  avg # of iterations =  1.0

     total cpu time spent up to now is     4486.0 secs

     total energy              =    -701.22989356 Ry
     Harris-Foulkes estimate   =    -701.44149025 Ry
     estimated scf accuracy    <       2.55997221 Ry

     iteration #  8     ecut=    50.00 Ry     beta= 0.60
     Davidson diagonalization with overlap
     ethr =  3.51E-03,  avg # of iterations =  1.7

     total cpu time spent up to now is     4569.2 secs

     total energy              =    -701.26698875 Ry
     Harris-Foulkes estimate   =    -701.28980114 Ry
     estimated scf accuracy    <       1.59198474 Ry

     iteration #  9     ecut=    50.00 Ry     beta= 0.60
     Davidson diagonalization with overlap
     ethr =  2.18E-03,  avg # of iterations =  1.0

     total cpu time spent up to now is     4649.8 secs

     total energy              =    -701.16198817 Ry
     Harris-Foulkes estimate   =    -701.28895573 Ry
     estimated scf accuracy    <       1.48260736 Ry

     iteration # 10     ecut=    50.00 Ry     beta= 0.60
     Davidson diagonalization with overlap
     ethr =  2.03E-03,  avg # of iterations =  1.5

     total cpu time spent up to now is     4732.1 secs

     total energy              =    -700.84872857 Ry
     Harris-Foulkes estimate   =    -701.19182078 Ry
     estimated scf accuracy    <       0.83904505 Ry

     iteration # 11     ecut=    50.00 Ry     beta= 0.60
     Davidson diagonalization with overlap
     ethr =  1.15E-03,  avg # of iterations =  5.8

     total cpu time spent up to now is     4880.3 secs

     total energy              =    -701.20089118 Ry
     Harris-Foulkes estimate   =    -701.32985888 Ry
     estimated scf accuracy    <       5.33290687 Ry

     iteration # 12     ecut=    50.00 Ry     beta= 0.60
     Davidson diagonalization with overlap
     ethr =  1.15E-03,  avg # of iterations =  1.0

     total cpu time spent up to now is     4960.2 secs

     total energy              =    -701.19074133 Ry
     Harris-Foulkes estimate   =    -701.21673712 Ry
     estimated scf accuracy    <       3.23594105 Ry

     iteration # 13     ecut=    50.00 Ry     beta= 0.60
     Davidson diagonalization with overlap
     ethr =  1.15E-03,  avg # of iterations =  1.0

     total cpu time spent up to now is     5040.1 secs

     total energy              =    -701.25864445 Ry
     Harris-Foulkes estimate   =    -701.19488311 Ry
     estimated scf accuracy    <       2.77731501 Ry

     iteration # 14     ecut=    50.00 Ry     beta= 0.60
     Davidson diagonalization with overlap
     ethr =  1.15E-03,  avg # of iterations =  1.0

     total cpu time spent up to now is     5120.0 secs

     total energy              =    -701.24454658 Ry
     Harris-Foulkes estimate   =    -701.26635067 Ry
     estimated scf accuracy    <       4.15830020 Ry

     iteration # 15     ecut=    50.00 Ry     beta= 0.60
     Davidson diagonalization with overlap
     ethr =  1.15E-03,  avg # of iterations =  1.0

     total cpu time spent up to now is     5200.2 secs

     total energy              =    -701.12319459 Ry
     Harris-Foulkes estimate   =    -701.24589133 Ry
     estimated scf accuracy    <       3.68797053 Ry

     iteration # 16     ecut=    50.00 Ry     beta= 0.60
     Davidson diagonalization with overlap
     ethr =  1.15E-03,  avg # of iterations =  1.0

     total cpu time spent up to now is     5280.1 secs

     total energy              =    -701.05884726 Ry
     Harris-Foulkes estimate   =    -701.14634149 Ry
     estimated scf accuracy    <       1.34514391 Ry

     iteration # 17     ecut=    50.00 Ry     beta= 0.60
     Davidson diagonalization with overlap
     ethr =  1.15E-03,  avg # of iterations =  2.5

     total cpu time spent up to now is     5368.6 secs

     total energy              =    -701.11669747 Ry
     Harris-Foulkes estimate   =    -701.11184329 Ry
     estimated scf accuracy    <       0.04774338 Ry

     iteration # 18     ecut=    50.00 Ry     beta= 0.60
     Davidson diagonalization with overlap
     ethr =  6.54E-05,  avg # of iterations =  7.0

     total cpu time spent up to now is     5506.5 secs

     total energy              =    -701.09504510 Ry
     Harris-Foulkes estimate   =    -701.14239345 Ry
     estimated scf accuracy    <       0.66862304 Ry

     iteration # 19     ecut=    50.00 Ry     beta= 0.60
     Davidson diagonalization with overlap
     c_bands:  1 eigenvalues not converged
     c_bands:  1 eigenvalues not converged
     c_bands:  1 eigenvalues not converged
     c_bands:  1 eigenvalues not converged
     c_bands:  1 eigenvalues not converged
     c_bands:  1 eigenvalues not converged
     ethr =  6.54E-05,  avg # of iterations =  8.1

     total cpu time spent up to now is     5645.0 secs

     total energy              =    -701.11631891 Ry
     Harris-Foulkes estimate   =    -701.11876317 Ry
     estimated scf accuracy    <       0.01752721 Ry

     iteration # 20     ecut=    50.00 Ry     beta= 0.60
     Davidson diagonalization with overlap
     c_bands:  1 eigenvalues not converged
     c_bands:  1 eigenvalues not converged
     c_bands:  1 eigenvalues not converged
     c_bands:  1 eigenvalues not converged
     c_bands:  1 eigenvalues not converged
     c_bands:  1 eigenvalues not converged
     c_bands:  1 eigenvalues not converged
     ethr =  2.40E-05,  avg # of iterations =  3.1

     total cpu time spent up to now is     5734.3 secs

     total energy              =    -701.11647054 Ry
     Harris-Foulkes estimate   =    -701.11700545 Ry
     estimated scf accuracy    <       0.00292215 Ry

     iteration # 21     ecut=    50.00 Ry     beta= 0.60
     Davidson diagonalization with overlap
     c_bands:  1 eigenvalues not converged
     c_bands:  1 eigenvalues not converged
     c_bands:  1 eigenvalues not converged
     c_bands:  1 eigenvalues not converged
     c_bands:  1 eigenvalues not converged
     c_bands:  1 eigenvalues not converged
     c_bands:  1 eigenvalues not converged
     c_bands:  1 eigenvalues not converged
     c_bands:  1 eigenvalues not converged
     c_bands:  1 eigenvalues not converged
     c_bands:  1 eigenvalues not converged
     c_bands:  1 eigenvalues not converged
     c_bands:  1 eigenvalues not converged
     c_bands:  2 eigenvalues not converged
     c_bands:  1 eigenvalues not converged
     c_bands:  1 eigenvalues not converged
     c_bands:  1 eigenvalues not converged
     c_bands:  1 eigenvalues not converged
     c_bands:  1 eigenvalues not converged
     c_bands:  1 eigenvalues not converged
     c_bands:  1 eigenvalues not converged
     c_bands:  1 eigenvalues not converged
     c_bands:  1 eigenvalues not converged
     c_bands:  1 eigenvalues not converged
     c_bands:  1 eigenvalues not converged
     c_bands:  1 eigenvalues not converged
     c_bands:  1 eigenvalues not converged
     c_bands:  1 eigenvalues not converged
     c_bands:  1 eigenvalues not converged
     ethr =  4.00E-06,  avg # of iterations = 10.7

     total cpu time spent up to now is     5900.0 secs

     total energy              =    -701.11678391 Ry
     Harris-Foulkes estimate   =    -701.11697084 Ry
     estimated scf accuracy    <       0.00209469 Ry

     iteration # 22     ecut=    50.00 Ry     beta= 0.60
     Davidson diagonalization with overlap
     c_bands:  1 eigenvalues not converged
     c_bands:  1 eigenvalues not converged
     ethr =  2.87E-06,  avg # of iterations =  1.1

     total cpu time spent up to now is     5980.6 secs

     total energy              =    -701.11677203 Ry
     Harris-Foulkes estimate   =    -701.11684066 Ry
     estimated scf accuracy    <       0.00068117 Ry

     iteration # 23     ecut=    50.00 Ry     beta= 0.60
     Davidson diagonalization with overlap
     c_bands:  1 eigenvalues not converged
     ethr =  9.33E-07,  avg # of iterations =  1.5

     total cpu time spent up to now is     6063.9 secs

     total energy              =    -701.11680247 Ry
     Harris-Foulkes estimate   =    -701.11680594 Ry
     estimated scf accuracy    <       0.00002235 Ry

     iteration # 24     ecut=    50.00 Ry     beta= 0.60
     Davidson diagonalization with overlap
     ethr =  3.06E-08,  avg # of iterations =  6.0

     total cpu time spent up to now is     6213.1 secs

     total energy              =    -701.11682559 Ry
     Harris-Foulkes estimate   =    -701.11683257 Ry
     estimated scf accuracy    <       0.00012801 Ry

     iteration # 25     ecut=    50.00 Ry     beta= 0.60
     Davidson diagonalization with overlap
     ethr =  3.06E-08,  avg # of iterations =  1.0

     total cpu time spent up to now is     6292.9 secs

     total energy              =    -701.11682123 Ry
     Harris-Foulkes estimate   =    -701.11682668 Ry
     estimated scf accuracy    <       0.00005729 Ry

     iteration # 26     ecut=    50.00 Ry     beta= 0.60
     Davidson diagonalization with overlap
     ethr =  3.06E-08,  avg # of iterations =  3.9

     total cpu time spent up to now is     6401.7 secs

     total energy              =    -701.11682536 Ry
     Harris-Foulkes estimate   =    -701.11682545 Ry
     estimated scf accuracy    <       0.00000202 Ry

     iteration # 27     ecut=    50.00 Ry     beta= 0.60
     Davidson diagonalization with overlap
     ethr =  2.77E-09,  avg # of iterations =  3.6

     total cpu time spent up to now is     6503.1 secs

     total energy              =    -701.11682531 Ry
     Harris-Foulkes estimate   =    -701.11682555 Ry
     estimated scf accuracy    <       0.00000210 Ry

     iteration # 28     ecut=    50.00 Ry     beta= 0.60
     Davidson diagonalization with overlap
     ethr =  2.77E-09,  avg # of iterations =  1.1

     total cpu time spent up to now is     6583.2 secs

     total energy              =    -701.11682542 Ry
     Harris-Foulkes estimate   =    -701.11682542 Ry
     estimated scf accuracy    <       0.00000008 Ry

     iteration # 29     ecut=    50.00 Ry     beta= 0.60
     Davidson diagonalization with overlap
     ethr =  1.05E-10,  avg # of iterations =  5.1

     total cpu time spent up to now is     6714.5 secs

     total energy              =    -701.11682546 Ry
     Harris-Foulkes estimate   =    -701.11682546 Ry
     estimated scf accuracy    <       0.00000005 Ry

     iteration # 30     ecut=    50.00 Ry     beta= 0.60
     Davidson diagonalization with overlap
     ethr =  6.71E-11,  avg # of iterations =  1.0

     total cpu time spent up to now is     6794.5 secs

     total energy              =    -701.11682546 Ry
     Harris-Foulkes estimate   =    -701.11682546 Ry
     estimated scf accuracy    <       0.00000004 Ry

     iteration # 31     ecut=    50.00 Ry     beta= 0.60
     Davidson diagonalization with overlap
     ethr =  4.88E-11,  avg # of iterations =  1.0

     total cpu time spent up to now is     6874.4 secs

     total energy              =    -701.11682546 Ry
     Harris-Foulkes estimate   =    -701.11682546 Ry
     estimated scf accuracy    <       0.00000001 Ry

     iteration # 32     ecut=    50.00 Ry     beta= 0.60
     Davidson diagonalization with overlap
     ethr =  1.93E-11,  avg # of iterations =  3.3

     total cpu time spent up to now is     6966.5 secs

     total energy              =    -701.11682546 Ry
     Harris-Foulkes estimate   =    -701.11682546 Ry
     estimated scf accuracy    <          2.6E-09 Ry

     iteration # 33     ecut=    50.00 Ry     beta= 0.60
     Davidson diagonalization with overlap
     ethr =  3.63E-12,  avg # of iterations =  4.8

     total cpu time spent up to now is     7088.9 secs

     total energy              =    -701.11682546 Ry
     Harris-Foulkes estimate   =    -701.11682546 Ry
     estimated scf accuracy    <          2.3E-09 Ry

     iteration # 34     ecut=    50.00 Ry     beta= 0.60
     Davidson diagonalization with overlap
     ethr =  3.16E-12,  avg # of iterations =  1.0

     total cpu time spent up to now is     7168.9 secs

     total energy              =    -701.11682546 Ry
     Harris-Foulkes estimate   =    -701.11682546 Ry
     estimated scf accuracy    <          1.2E-09 Ry

     iteration # 35     ecut=    50.00 Ry     beta= 0.60
     Davidson diagonalization with overlap
     ethr =  1.71E-12,  avg # of iterations =  2.3

     total cpu time spent up to now is     7255.4 secs

     End of self-consistent calculation

     Number of k-points >= 100: set verbosity='high' to print the bands.

     the Fermi energy is    11.9893 ev

!    total energy              =    -701.11682546 Ry
     Harris-Foulkes estimate   =    -701.11682546 Ry
     estimated scf accuracy    <          4.2E-11 Ry

     The total energy is the sum of the following terms:

     one-electron contribution =    -256.33515693 Ry
     hartree contribution      =     147.45763037 Ry
     xc contribution           =     -90.50108099 Ry
     ewald contribution        =    -501.73673380 Ry
     smearing contrib. (-TS)   =      -0.00148411 Ry

     convergence has been achieved in  35 iterations

     Forces acting on atoms (cartesian axes, Ry/au):

     atom    1 type  2   force =     0.00267422   -0.00333934   -0.00504639
     atom    2 type  2   force =    -0.00237898    0.00170650   -0.00506758
     atom    3 type  2   force =     0.00000000    0.00000000    0.00000000
     atom    4 type  2   force =     0.00237898   -0.00170650    0.00506758
     atom    5 type  2   force =    -0.00267422    0.00333934    0.00504639
     atom    6 type  1   force =     0.00000000    0.00000000    0.00000000

     Total force =     0.012492     Total SCF correction =     0.000009


     Computing stress (Cartesian axis) and pressure

          total   stress  (Ry/bohr**3)                   (kbar)     P= -125.36
  -0.00085527   0.00000143  -0.00000250       -125.82      0.21     -0.37
   0.00000143  -0.00085719  -0.00000409          0.21   -126.10     -0.60
  -0.00000250  -0.00000409  -0.00084410         -0.37     -0.60   -124.17


     number of scf cycles    =   2
     number of bfgs steps    =   1

     enthalpy old            =    -701.0356129727 Ry
     enthalpy new            =    -701.1168254570 Ry

     CASE: enthalpy_new < enthalpy_old

     new trust radius        =       0.2655706691 bohr
     new conv_thr            =            1.0E-10 Ry

     new unit-cell volume =    695.54888 a.u.^3 (   103.06971 Ang^3 )
     density =      5.35269 g/cm^3

CELL_PARAMETERS (alat=  1.88972599)
  -1.624681512  -1.624258988  -1.625345759
   1.626400529   1.626815672  -4.880312521
   4.875533413  -4.873825290  -1.625786445

ATOMIC_POSITIONS (angstrom)
Ti       3.256997666  -3.252582726  -6.513301098
Ti       1.622311898  -1.619186363  -4.887130846
Ti       4.876392922  -4.872546948  -4.878615585
Ti       3.254940533  -3.252082243  -3.244313879
Ti       1.620254764  -1.618685880  -1.618143627
Nb       4.877252431  -4.871268606  -8.131444725


     NEW-OLD atomic charge density approx. for the potential
     extrapolated charge   62.53640, renormalised to   73.00000

     total cpu time spent up to now is     7301.6 secs

     Self-consistent Calculation

     iteration #  1     ecut=    50.00 Ry     beta= 0.60
     Davidson diagonalization with overlap
     c_bands:  1 eigenvalues not converged
     c_bands:  2 eigenvalues not converged
     c_bands:  1 eigenvalues not converged
     c_bands:  1 eigenvalues not converged
     c_bands:  1 eigenvalues not converged
     c_bands:  1 eigenvalues not converged
     c_bands:  1 eigenvalues not converged
     c_bands:  4 eigenvalues not converged
     c_bands:  3 eigenvalues not converged
     c_bands:  2 eigenvalues not converged
     c_bands:  2 eigenvalues not converged
     c_bands:  2 eigenvalues not converged
     c_bands:  1 eigenvalues not converged
     c_bands:  2 eigenvalues not converged
     c_bands:  3 eigenvalues not converged
     c_bands:  1 eigenvalues not converged
     c_bands:  1 eigenvalues not converged
     c_bands:  1 eigenvalues not converged
     c_bands:  1 eigenvalues not converged
     c_bands:  1 eigenvalues not converged
     c_bands:  1 eigenvalues not converged
     c_bands:  1 eigenvalues not converged
     c_bands:  2 eigenvalues not converged
     c_bands:  1 eigenvalues not converged
     c_bands:  1 eigenvalues not converged
     c_bands:  1 eigenvalues not converged
     c_bands:  1 eigenvalues not converged
     c_bands:  1 eigenvalues not converged
     c_bands:  1 eigenvalues not converged
     c_bands:  2 eigenvalues not converged
     c_bands:  1 eigenvalues not converged
     c_bands:  2 eigenvalues not converged
     c_bands:  1 eigenvalues not converged
     c_bands:  1 eigenvalues not converged
     c_bands:  1 eigenvalues not converged
     c_bands:  1 eigenvalues not converged
     c_bands:  1 eigenvalues not converged
     c_bands:  1 eigenvalues not converged
     c_bands:  1 eigenvalues not converged
     c_bands:  1 eigenvalues not converged
     c_bands:  2 eigenvalues not converged
     c_bands:  3 eigenvalues not converged
     c_bands:  2 eigenvalues not converged
     c_bands:  2 eigenvalues not converged
     c_bands:  1 eigenvalues not converged
     c_bands:  1 eigenvalues not converged
     c_bands:  1 eigenvalues not converged
     c_bands:  1 eigenvalues not converged
     c_bands:  2 eigenvalues not converged
     c_bands:  2 eigenvalues not converged
     c_bands:  1 eigenvalues not converged
     c_bands:  2 eigenvalues not converged
     c_bands:  1 eigenvalues not converged
     c_bands:  1 eigenvalues not converged
     c_bands:  1 eigenvalues not converged
     c_bands:  1 eigenvalues not converged
     c_bands:  1 eigenvalues not converged
     c_bands:  1 eigenvalues not converged
     c_bands:  1 eigenvalues not converged
     c_bands:  1 eigenvalues not converged
     c_bands:  1 eigenvalues not converged
     c_bands:  1 eigenvalues not converged
     c_bands:  1 eigenvalues not converged
     c_bands:  2 eigenvalues not converged
     c_bands:  1 eigenvalues not converged
     c_bands:  1 eigenvalues not converged
     c_bands:  1 eigenvalues not converged
     c_bands:  2 eigenvalues not converged
     c_bands:  1 eigenvalues not converged
     c_bands:  2 eigenvalues not converged
     c_bands:  1 eigenvalues not converged
     c_bands:  1 eigenvalues not converged
     c_bands:  1 eigenvalues not converged
     c_bands:  2 eigenvalues not converged
     c_bands:  2 eigenvalues not converged
     c_bands:  2 eigenvalues not converged
     c_bands:  1 eigenvalues not converged
     c_bands:  1 eigenvalues not converged
     c_bands:  1 eigenvalues not converged
     c_bands:  1 eigenvalues not converged
     c_bands:  1 eigenvalues not converged
     c_bands:  1 eigenvalues not converged
     c_bands:  1 eigenvalues not converged
     c_bands:  1 eigenvalues not converged
     c_bands:  1 eigenvalues not converged
     c_bands:  1 eigenvalues not converged
     c_bands:  1 eigenvalues not converged
     c_bands:  1 eigenvalues not converged
     c_bands:  1 eigenvalues not converged
     c_bands:  1 eigenvalues not converged
     c_bands:  1 eigenvalues not converged
     c_bands:  2 eigenvalues not converged
     c_bands:  1 eigenvalues not converged
     c_bands:  1 eigenvalues not converged
     c_bands:  1 eigenvalues not converged
     c_bands:  2 eigenvalues not converged
     c_bands:  3 eigenvalues not converged
     c_bands:  1 eigenvalues not converged
     c_bands:  1 eigenvalues not converged
     c_bands:  2 eigenvalues not converged
     c_bands:  1 eigenvalues not converged
     ethr =  1.00E-06,  avg # of iterations = 17.7

     total cpu time spent up to now is     7694.9 secs

     total energy              =    -669.69181296 Ry
     Harris-Foulkes estimate   =    -727.85000004 Ry
     estimated scf accuracy    <      33.83595929 Ry

     iteration #  2     ecut=    50.00 Ry     beta= 0.60
     Davidson diagonalization with overlap
     ethr =  1.00E-02,  avg # of iterations =  5.5

     total cpu time spent up to now is     7879.3 secs

     total energy              =    -689.38719927 Ry
     Harris-Foulkes estimate   =    -737.55694119 Ry
     estimated scf accuracy    <     150.11425116 Ry

     iteration #  3     ecut=    50.00 Ry     beta= 0.60
     Davidson diagonalization with overlap
     ethr =  1.00E-02,  avg # of iterations =  4.7

     total cpu time spent up to now is     8024.7 secs

     total energy              =    -702.72764365 Ry
     Harris-Foulkes estimate   =    -706.01204565 Ry
     estimated scf accuracy    <      12.75208653 Ry

     iteration #  4     ecut=    50.00 Ry     beta= 0.60
     Davidson diagonalization with overlap
     ethr =  1.00E-02,  avg # of iterations =  2.4

     total cpu time spent up to now is     8117.4 secs

     total energy              =    -702.78015795 Ry
     Harris-Foulkes estimate   =    -704.01925290 Ry
     estimated scf accuracy    <      14.29670754 Ry

     iteration #  5     ecut=    50.00 Ry     beta= 0.60
     Davidson diagonalization with overlap
     ethr =  1.00E-02,  avg # of iterations =  1.0

     total cpu time spent up to now is     8197.3 secs

     total energy              =    -702.37577817 Ry
     Harris-Foulkes estimate   =    -703.06697101 Ry
     estimated scf accuracy    <       8.03843891 Ry

     iteration #  6     ecut=    50.00 Ry     beta= 0.60
     Davidson diagonalization with overlap
     ethr =  1.00E-02,  avg # of iterations =  1.0

     total cpu time spent up to now is     8277.8 secs

     total energy              =    -701.03223524 Ry
     Harris-Foulkes estimate   =    -702.45793923 Ry
     estimated scf accuracy    <       5.82945461 Ry

     iteration #  7     ecut=    50.00 Ry     beta= 0.60
     Davidson diagonalization with overlap
     ethr =  7.99E-03,  avg # of iterations =  1.5

     total cpu time spent up to now is     8360.2 secs

     total energy              =    -701.38660640 Ry
     Harris-Foulkes estimate   =    -701.32237856 Ry
     estimated scf accuracy    <       1.74796268 Ry

     iteration #  8     ecut=    50.00 Ry     beta= 0.60
     Davidson diagonalization with overlap
     ethr =  2.39E-03,  avg # of iterations =  2.5

     total cpu time spent up to now is     8447.4 secs

     total energy              =    -701.47223376 Ry
     Harris-Foulkes estimate   =    -701.46236687 Ry
     estimated scf accuracy    <       1.85051001 Ry

     iteration #  9     ecut=    50.00 Ry     beta= 0.60
     Davidson diagonalization with overlap
     ethr =  2.39E-03,  avg # of iterations =  1.0

     total cpu time spent up to now is     8527.0 secs

     total energy              =    -701.46729668 Ry
     Harris-Foulkes estimate   =    -701.49346959 Ry
     estimated scf accuracy    <       1.92020898 Ry

     iteration # 10     ecut=    50.00 Ry     beta= 0.60
     Davidson diagonalization with overlap
     ethr =  2.39E-03,  avg # of iterations =  1.0

     total cpu time spent up to now is     8606.9 secs

     total energy              =    -700.59902297 Ry
     Harris-Foulkes estimate   =    -701.47475494 Ry
     estimated scf accuracy    <       1.82703916 Ry

     iteration # 11     ecut=    50.00 Ry     beta= 0.60
     Davidson diagonalization with overlap
     ethr =  2.39E-03,  avg # of iterations =  5.4

     total cpu time spent up to now is     8751.2 secs

     total energy              =    -701.36778794 Ry
     Harris-Foulkes estimate   =    -701.66780841 Ry
     estimated scf accuracy    <      11.05791592 Ry

     iteration # 12     ecut=    50.00 Ry     beta= 0.60
     Davidson diagonalization with overlap
     ethr =  2.39E-03,  avg # of iterations =  1.0

     total cpu time spent up to now is     8831.4 secs

     total energy              =    -701.40830184 Ry
     Harris-Foulkes estimate   =    -701.41067434 Ry
     estimated scf accuracy    <       6.60173053 Ry

     iteration # 13     ecut=    50.00 Ry     beta= 0.60
     Davidson diagonalization with overlap
     ethr =  2.39E-03,  avg # of iterations =  1.0

     total cpu time spent up to now is     8911.6 secs

     total energy              =    -701.41165902 Ry
     Harris-Foulkes estimate   =    -701.41520657 Ry
     estimated scf accuracy    <       6.62587103 Ry

     iteration # 14     ecut=    50.00 Ry     beta= 0.60
     Davidson diagonalization with overlap
     ethr =  2.39E-03,  avg # of iterations =  1.0

     total cpu time spent up to now is     8991.9 secs

     total energy              =    -701.33436935 Ry
     Harris-Foulkes estimate   =    -701.41575383 Ry
     estimated scf accuracy    <       6.36479070 Ry

     iteration # 15     ecut=    50.00 Ry     beta= 0.60
     Davidson diagonalization with overlap
     ethr =  2.39E-03,  avg # of iterations =  1.0

     total cpu time spent up to now is     9072.0 secs

     total energy              =    -700.91453129 Ry
     Harris-Foulkes estimate   =    -701.34656421 Ry
     estimated scf accuracy    <       4.62290707 Ry

     iteration # 16     ecut=    50.00 Ry     beta= 0.60
     Davidson diagonalization with overlap
     ethr =  2.39E-03,  avg # of iterations =  1.8

     total cpu time spent up to now is     9155.3 secs

     total energy              =    -701.11223778 Ry
     Harris-Foulkes estimate   =    -701.16351221 Ry
     estimated scf accuracy    <       0.21354839 Ry

     iteration # 17     ecut=    50.00 Ry     beta= 0.60
     Davidson diagonalization with overlap
     ethr =  2.93E-04,  avg # of iterations =  7.8

     total cpu time spent up to now is     9317.4 secs

     total energy              =    -701.18586247 Ry
     Harris-Foulkes estimate   =    -701.19433708 Ry
     estimated scf accuracy    <       0.25597222 Ry

     iteration # 18     ecut=    50.00 Ry     beta= 0.60
     Davidson diagonalization with overlap
     ethr =  2.93E-04,  avg # of iterations =  1.0

     total cpu time spent up to now is     9397.3 secs

     total energy              =    -701.15600265 Ry
     Harris-Foulkes estimate   =    -701.18790306 Ry
     estimated scf accuracy    <       0.22749195 Ry

     iteration # 19     ecut=    50.00 Ry     beta= 0.60
     Davidson diagonalization with overlap
     ethr =  2.93E-04,  avg # of iterations =  1.3

     total cpu time spent up to now is     9478.4 secs

     total energy              =    -701.15846273 Ry
     Harris-Foulkes estimate   =    -701.16296268 Ry
     estimated scf accuracy    <       0.05969507 Ry

     iteration # 20     ecut=    50.00 Ry     beta= 0.60
     Davidson diagonalization with overlap
     ethr =  8.18E-05,  avg # of iterations =  5.0

     total cpu time spent up to now is     9591.2 secs

     total energy              =    -701.16492037 Ry
     Harris-Foulkes estimate   =    -701.16517801 Ry
     estimated scf accuracy    <       0.00081257 Ry

     iteration # 21     ecut=    50.00 Ry     beta= 0.60
     Davidson diagonalization with overlap
     ethr =  1.11E-06,  avg # of iterations =  8.5

     total cpu time spent up to now is     9775.0 secs

     total energy              =    -701.16529432 Ry
     Harris-Foulkes estimate   =    -701.16546767 Ry
     estimated scf accuracy    <       0.00137249 Ry

     iteration # 22     ecut=    50.00 Ry     beta= 0.60
     Davidson diagonalization with overlap
     ethr =  1.11E-06,  avg # of iterations =  2.8

     total cpu time spent up to now is     9866.6 secs

     total energy              =    -701.16535766 Ry
     Harris-Foulkes estimate   =    -701.16540017 Ry
     estimated scf accuracy    <       0.00038720 Ry

     iteration # 23     ecut=    50.00 Ry     beta= 0.60
     Davidson diagonalization with overlap
     ethr =  5.30E-07,  avg # of iterations =  2.0

     total cpu time spent up to now is     9952.4 secs

     total energy              =    -701.16537561 Ry
     Harris-Foulkes estimate   =    -701.16538619 Ry
     estimated scf accuracy    <       0.00020677 Ry

     iteration # 24     ecut=    50.00 Ry     beta= 0.60
     Davidson diagonalization with overlap
     ethr =  2.83E-07,  avg # of iterations =  2.4

     total cpu time spent up to now is    10040.0 secs

     total energy              =    -701.16537595 Ry
     Harris-Foulkes estimate   =    -701.16538530 Ry
     estimated scf accuracy    <       0.00015487 Ry

     iteration # 25     ecut=    50.00 Ry     beta= 0.60
     Davidson diagonalization with overlap
     ethr =  2.12E-07,  avg # of iterations =  1.8

     total cpu time spent up to now is    10123.4 secs

     total energy              =    -701.16537222 Ry
     Harris-Foulkes estimate   =    -701.16537949 Ry
     estimated scf accuracy    <       0.00006366 Ry

     iteration # 26     ecut=    50.00 Ry     beta= 0.60
     Davidson diagonalization with overlap
     ethr =  8.72E-08,  avg # of iterations =  3.8

     total cpu time spent up to now is    10220.7 secs

     total energy              =    -701.16537643 Ry
     Harris-Foulkes estimate   =    -701.16537692 Ry
     estimated scf accuracy    <       0.00000465 Ry

     iteration # 27     ecut=    50.00 Ry     beta= 0.60
     Davidson diagonalization with overlap
     ethr =  6.37E-09,  avg # of iterations =  4.4

     total cpu time spent up to now is    10336.6 secs

     total energy              =    -701.16537713 Ry
     Harris-Foulkes estimate   =    -701.16537762 Ry
     estimated scf accuracy    <       0.00000405 Ry

     iteration # 28     ecut=    50.00 Ry     beta= 0.60
     Davidson diagonalization with overlap
     ethr =  5.54E-09,  avg # of iterations =  1.8

     total cpu time spent up to now is    10420.8 secs

     total energy              =    -701.16537732 Ry
     Harris-Foulkes estimate   =    -701.16537736 Ry
     estimated scf accuracy    <       0.00000031 Ry

     iteration # 29     ecut=    50.00 Ry     beta= 0.60
     Davidson diagonalization with overlap
     ethr =  4.20E-10,  avg # of iterations =  5.0

     total cpu time spent up to now is    10549.1 secs

     total energy              =    -701.16537738 Ry
     Harris-Foulkes estimate   =    -701.16537745 Ry
     estimated scf accuracy    <       0.00000047 Ry

     iteration # 30     ecut=    50.00 Ry     beta= 0.60
     Davidson diagonalization with overlap
     ethr =  4.20E-10,  avg # of iterations =  2.0

     total cpu time spent up to now is    10633.3 secs

     total energy              =    -701.16537739 Ry
     Harris-Foulkes estimate   =    -701.16537740 Ry
     estimated scf accuracy    <       0.00000007 Ry

     iteration # 31     ecut=    50.00 Ry     beta= 0.60
     Davidson diagonalization with overlap
     ethr =  9.58E-11,  avg # of iterations =  4.1

     total cpu time spent up to now is    10748.5 secs

     total energy              =    -701.16537741 Ry
     Harris-Foulkes estimate   =    -701.16537741 Ry
     estimated scf accuracy    <       0.00000003 Ry

     iteration # 32     ecut=    50.00 Ry     beta= 0.60
     Davidson diagonalization with overlap
     ethr =  4.74E-11,  avg # of iterations =  1.0

     total cpu time spent up to now is    10828.5 secs

     total energy              =    -701.16537741 Ry
     Harris-Foulkes estimate   =    -701.16537741 Ry
     estimated scf accuracy    <          6.1E-09 Ry

     iteration # 33     ecut=    50.00 Ry     beta= 0.60
     Davidson diagonalization with overlap
     ethr =  8.40E-12,  avg # of iterations =  4.0

     total cpu time spent up to now is    10943.8 secs

     total energy              =    -701.16537741 Ry
     Harris-Foulkes estimate   =    -701.16537741 Ry
     estimated scf accuracy    <          2.9E-09 Ry

     iteration # 34     ecut=    50.00 Ry     beta= 0.60
     Davidson diagonalization with overlap
     ethr =  3.94E-12,  avg # of iterations =  2.0

     total cpu time spent up to now is    11027.9 secs

     total energy              =    -701.16537741 Ry
     Harris-Foulkes estimate   =    -701.16537741 Ry
     estimated scf accuracy    <          1.6E-10 Ry

     iteration # 35     ecut=    50.00 Ry     beta= 0.60
     Davidson diagonalization with overlap
     ethr =  2.13E-13,  avg # of iterations =  5.0

     total cpu time spent up to now is    11160.9 secs

     total energy              =    -701.16537741 Ry
     Harris-Foulkes estimate   =    -701.16537741 Ry
     estimated scf accuracy    <          2.2E-10 Ry

     iteration # 36     ecut=    50.00 Ry     beta= 0.60
     Davidson diagonalization with overlap
     ethr =  2.13E-13,  avg # of iterations =  1.0

     total cpu time spent up to now is    11240.8 secs

     total energy              =    -701.16537741 Ry
     Harris-Foulkes estimate   =    -701.16537741 Ry
     estimated scf accuracy    <          1.1E-10 Ry

     iteration # 37     ecut=    50.00 Ry     beta= 0.60
     Davidson diagonalization with overlap
     ethr =  1.45E-13,  avg # of iterations =  2.8

     total cpu time spent up to now is    11335.1 secs

     End of self-consistent calculation

     Number of k-points >= 100: set verbosity='high' to print the bands.

     the Fermi energy is    14.2291 ev

!    total energy              =    -701.16537741 Ry
     Harris-Foulkes estimate   =    -701.16537741 Ry
     estimated scf accuracy    <          4.4E-12 Ry

     The total energy is the sum of the following terms:

     one-electron contribution =    -219.95880812 Ry
     hartree contribution      =     136.17498675 Ry
     xc contribution           =     -91.17597252 Ry
     ewald contribution        =    -526.20483534 Ry
     smearing contrib. (-TS)   =      -0.00074819 Ry

     convergence has been achieved in  37 iterations

     Forces acting on atoms (cartesian axes, Ry/au):

     atom    1 type  2   force =    -0.00257346   -0.00175545   -0.00324707
     atom    2 type  2   force =    -0.00074427   -0.00362905   -0.00326699
     atom    3 type  2   force =     0.00000000    0.00000000    0.00000000
     atom    4 type  2   force =     0.00074427    0.00362905    0.00326699
     atom    5 type  2   force =     0.00257346    0.00175545    0.00324707
     atom    6 type  1   force =     0.00000000    0.00000000    0.00000000

     Total force =     0.009449     Total SCF correction =     0.000006


     Computing stress (Cartesian axis) and pressure

          total   stress  (Ry/bohr**3)                   (kbar)     P=    7.55
   0.00004635   0.00000942   0.00000340          6.82      1.39      0.50
   0.00000942   0.00004158   0.00000204          1.39      6.12      0.30
   0.00000340   0.00000204   0.00006601          0.50      0.30      9.71


     number of scf cycles    =   3
     number of bfgs steps    =   2

     enthalpy old            =    -701.1168254570 Ry
     enthalpy new            =    -701.1653774097 Ry

     CASE: enthalpy_new < enthalpy_old

     new trust radius        =       0.0146071355 bohr
     new conv_thr            =            1.0E-10 Ry

     new unit-cell volume =    700.69565 a.u.^3 (   103.83238 Ang^3 )
     density =      5.31337 g/cm^3

CELL_PARAMETERS (alat=  1.88972599)
  -1.628973567  -1.628341841  -1.630060020
   1.630179086   1.630561958  -4.893603363
   4.885900734  -4.883910626  -1.630155524

ATOMIC_POSITIONS (angstrom)
Ti       3.262306963  -3.260254773  -6.532490483
Ti       1.625165796  -1.624374838  -4.901871062
Ti       4.886503493  -4.882800567  -4.891987216
Ti       3.261940456  -3.257315670  -3.251947845
Ti       1.624799290  -1.621435735  -1.621328424
Nb       4.887106253  -4.881690508  -8.153818907


     NEW-OLD atomic charge density approx. for the potential
     extrapolated charge   73.49945, renormalised to   73.00000

     total cpu time spent up to now is    11381.3 secs

     Self-consistent Calculation

     iteration #  1     ecut=    50.00 Ry     beta= 0.60
     Davidson diagonalization with overlap
     ethr =  1.00E-06,  avg # of iterations =  5.2

     total cpu time spent up to now is    11559.5 secs

     total energy              =    -701.13693892 Ry
     Harris-Foulkes estimate   =    -700.07537438 Ry
     estimated scf accuracy    <       0.02531564 Ry

     iteration #  2     ecut=    50.00 Ry     beta= 0.60
     Davidson diagonalization with overlap
     ethr =  3.47E-05,  avg # of iterations =  6.9

     total cpu time spent up to now is    11737.9 secs

     total energy              =    -701.12111376 Ry
     Harris-Foulkes estimate   =    -701.20639790 Ry
     estimated scf accuracy    <       0.58485422 Ry

     iteration #  3     ecut=    50.00 Ry     beta= 0.60
     Davidson diagonalization with overlap
     ethr =  3.47E-05,  avg # of iterations =  7.1

     total cpu time spent up to now is    11899.6 secs

     total energy              =    -701.14631930 Ry
     Harris-Foulkes estimate   =    -701.19079527 Ry
     estimated scf accuracy    <       0.40990637 Ry

     iteration #  4     ecut=    50.00 Ry     beta= 0.60
     Davidson diagonalization with overlap
     ethr =  3.47E-05,  avg # of iterations =  5.9

     total cpu time spent up to now is    12045.1 secs

     total energy              =    -701.16041117 Ry
     Harris-Foulkes estimate   =    -701.17429862 Ry
     estimated scf accuracy    <       0.09519469 Ry

     iteration #  5     ecut=    50.00 Ry     beta= 0.60
     Davidson diagonalization with overlap
     ethr =  3.47E-05,  avg # of iterations =  3.5

     total cpu time spent up to now is    12149.2 secs

     total energy              =    -701.16618623 Ry
     Harris-Foulkes estimate   =    -701.16706421 Ry
     estimated scf accuracy    <       0.00605588 Ry

     iteration #  6     ecut=    50.00 Ry     beta= 0.60
     Davidson diagonalization with overlap
     ethr =  8.30E-06,  avg # of iterations =  2.2

     total cpu time spent up to now is    12235.2 secs

     total energy              =    -701.16609829 Ry
     Harris-Foulkes estimate   =    -701.16638187 Ry
     estimated scf accuracy    <       0.00372020 Ry

     iteration #  7     ecut=    50.00 Ry     beta= 0.60
     Davidson diagonalization with overlap
     ethr =  5.10E-06,  avg # of iterations =  1.1

     total cpu time spent up to now is    12315.6 secs

     total energy              =    -701.16585763 Ry
     Harris-Foulkes estimate   =    -701.16616938 Ry
     estimated scf accuracy    <       0.00288261 Ry

     iteration #  8     ecut=    50.00 Ry     beta= 0.60
     Davidson diagonalization with overlap
     ethr =  3.95E-06,  avg # of iterations =  1.0

     total cpu time spent up to now is    12395.5 secs

     total energy              =    -701.16560227 Ry
     Harris-Foulkes estimate   =    -701.16590897 Ry
     estimated scf accuracy    <       0.00185775 Ry

     iteration #  9     ecut=    50.00 Ry     beta= 0.60
     Davidson diagonalization with overlap
     c_bands:  1 eigenvalues not converged
     c_bands:  1 eigenvalues not converged
     c_bands:  1 eigenvalues not converged
     c_bands:  1 eigenvalues not converged
     c_bands:  1 eigenvalues not converged
     c_bands:  1 eigenvalues not converged
     c_bands:  1 eigenvalues not converged
     ethr =  2.54E-06,  avg # of iterations =  3.0

     total cpu time spent up to now is    12486.8 secs

     total energy              =    -701.16562604 Ry
     Harris-Foulkes estimate   =    -701.16568314 Ry
     estimated scf accuracy    <       0.00074895 Ry

     iteration # 10     ecut=    50.00 Ry     beta= 0.60
     Davidson diagonalization with overlap
     c_bands:  1 eigenvalues not converged
     c_bands:  1 eigenvalues not converged
     c_bands:  1 eigenvalues not converged
     c_bands:  1 eigenvalues not converged
     c_bands:  1 eigenvalues not converged
     ethr =  1.03E-06,  avg # of iterations =  2.4

     total cpu time spent up to now is    12573.1 secs

     total energy              =    -701.16543384 Ry
     Harris-Foulkes estimate   =    -701.16564550 Ry
     estimated scf accuracy    <       0.00052790 Ry

     iteration # 11     ecut=    50.00 Ry     beta= 0.60
     Davidson diagonalization with overlap
     c_bands:  1 eigenvalues not converged
     c_bands:  1 eigenvalues not converged
     ethr =  7.23E-07,  avg # of iterations =  3.8

     total cpu time spent up to now is    12684.8 secs

     total energy              =    -701.16555808 Ry
     Harris-Foulkes estimate   =    -701.16556205 Ry
     estimated scf accuracy    <       0.00001643 Ry

     iteration # 12     ecut=    50.00 Ry     beta= 0.60
     Davidson diagonalization with overlap
     c_bands:  1 eigenvalues not converged
     ethr =  2.25E-08,  avg # of iterations =  6.4

     total cpu time spent up to now is    12841.5 secs

     total energy              =    -701.16556546 Ry
     Harris-Foulkes estimate   =    -701.16556580 Ry
     estimated scf accuracy    <       0.00000303 Ry

     iteration # 13     ecut=    50.00 Ry     beta= 0.60
     Davidson diagonalization with overlap
     c_bands:  1 eigenvalues not converged
     ethr =  4.15E-09,  avg # of iterations =  1.9

     total cpu time spent up to now is    12926.9 secs

     total energy              =    -701.16556544 Ry
     Harris-Foulkes estimate   =    -701.16556563 Ry
     estimated scf accuracy    <       0.00000119 Ry

     iteration # 14     ecut=    50.00 Ry     beta= 0.60
     Davidson diagonalization with overlap
     c_bands:  1 eigenvalues not converged
     ethr =  1.63E-09,  avg # of iterations =  2.4

     total cpu time spent up to now is    13013.8 secs

     total energy              =    -701.16556536 Ry
     Harris-Foulkes estimate   =    -701.16556550 Ry
     estimated scf accuracy    <       0.00000042 Ry

     iteration # 15     ecut=    50.00 Ry     beta= 0.60
     Davidson diagonalization with overlap
     ethr =  5.71E-10,  avg # of iterations =  4.1

     total cpu time spent up to now is    13131.7 secs

     total energy              =    -701.16556547 Ry
     Harris-Foulkes estimate   =    -701.16556550 Ry
     estimated scf accuracy    <       0.00000017 Ry

     iteration # 16     ecut=    50.00 Ry     beta= 0.60
     Davidson diagonalization with overlap
     ethr =  2.37E-10,  avg # of iterations =  2.9

     total cpu time spent up to now is    13223.3 secs

     total energy              =    -701.16556548 Ry
     Harris-Foulkes estimate   =    -701.16556549 Ry
     estimated scf accuracy    <          7.3E-09 Ry

     iteration # 17     ecut=    50.00 Ry     beta= 0.60
     Davidson diagonalization with overlap
     ethr =  1.00E-11,  avg # of iterations =  5.1

     total cpu time spent up to now is    13361.6 secs

     total energy              =    -701.16556549 Ry
     Harris-Foulkes estimate   =    -701.16556549 Ry
     estimated scf accuracy    <       0.00000002 Ry

     iteration # 18     ecut=    50.00 Ry     beta= 0.60
     Davidson diagonalization with overlap
     ethr =  1.00E-11,  avg # of iterations =  1.0

     total cpu time spent up to now is    13442.1 secs

     total energy              =    -701.16556549 Ry
     Harris-Foulkes estimate   =    -701.16556549 Ry
     estimated scf accuracy    <          8.0E-09 Ry

     iteration # 19     ecut=    50.00 Ry     beta= 0.60
     Davidson diagonalization with overlap
     ethr =  1.00E-11,  avg # of iterations =  3.1

     total cpu time spent up to now is    13544.9 secs

     total energy              =    -701.16556549 Ry
     Harris-Foulkes estimate   =    -701.16556549 Ry
     estimated scf accuracy    <          2.5E-10 Ry

     iteration # 20     ecut=    50.00 Ry     beta= 0.60
     Davidson diagonalization with overlap
     ethr =  3.39E-13,  avg # of iterations =  4.6

     total cpu time spent up to now is    13662.5 secs

     total energy              =    -701.16556549 Ry
     Harris-Foulkes estimate   =    -701.16556549 Ry
     estimated scf accuracy    <          2.4E-10 Ry

     iteration # 21     ecut=    50.00 Ry     beta= 0.60
     Davidson diagonalization with overlap
     ethr =  3.29E-13,  avg # of iterations =  1.6

     total cpu time spent up to now is    13745.0 secs

     End of self-consistent calculation

     Number of k-points >= 100: set verbosity='high' to print the bands.

     the Fermi energy is    14.1062 ev

!    total energy              =    -701.16556549 Ry
     Harris-Foulkes estimate   =    -701.16556549 Ry
     estimated scf accuracy    <          1.6E-11 Ry

     The total energy is the sum of the following terms:

     one-electron contribution =    -221.85477021 Ry
     hartree contribution      =     136.74624765 Ry
     xc contribution           =     -91.13815982 Ry
     ewald contribution        =    -524.91813891 Ry
     smearing contrib. (-TS)   =      -0.00074420 Ry

     convergence has been achieved in  21 iterations

     Forces acting on atoms (cartesian axes, Ry/au):

     atom    1 type  2   force =    -0.00208930   -0.00202648   -0.00352264
     atom    2 type  2   force =    -0.00084620   -0.00332523   -0.00352158
     atom    3 type  2   force =     0.00000000    0.00000000    0.00000000
     atom    4 type  2   force =     0.00084620    0.00332523    0.00352158
     atom    5 type  2   force =     0.00208930    0.00202648    0.00352264
     atom    6 type  1   force =     0.00000000    0.00000000    0.00000000

     Total force =     0.009493     Total SCF correction =     0.000007


     Computing stress (Cartesian axis) and pressure

          total   stress  (Ry/bohr**3)                   (kbar)     P=   -1.14
  -0.00001261   0.00000820   0.00000268         -1.86      1.21      0.39
   0.00000820  -0.00001755   0.00000134          1.21     -2.58      0.20
   0.00000268   0.00000134   0.00000696          0.39      0.20      1.02


     number of scf cycles    =   4
     number of bfgs steps    =   3

     enthalpy old            =    -701.1653774097 Ry
     enthalpy new            =    -701.1655654912 Ry

     CASE: enthalpy_new < enthalpy_old

     new trust radius        =       0.0060915575 bohr
     new conv_thr            =            1.0E-10 Ry

     new unit-cell volume =    701.32643 a.u.^3 (   103.92585 Ang^3 )
     density =      5.30859 g/cm^3

CELL_PARAMETERS (alat=  1.88972599)
  -1.629814900  -1.628843109  -1.631587711
   1.630397147   1.630732312  -4.897229573
   4.885027896  -4.882475918  -1.631225458

ATOMIC_POSITIONS (angstrom)
Ti       3.259752874  -3.260854147  -6.539771080
Ti       1.623923052  -1.626349518  -4.907938453
Ti       4.885319020  -4.881531316  -4.895634101
Ti       3.261687092  -3.254237196  -3.252104290
Ti       1.625857269  -1.619732568  -1.620271663
Nb       4.885610144  -4.880586714  -8.160042743


     NEW-OLD atomic charge density approx. for the potential
     extrapolated charge   73.06116, renormalised to   73.00000

     total cpu time spent up to now is    13793.1 secs

     Self-consistent Calculation

     iteration #  1     ecut=    50.00 Ry     beta= 0.60
     Davidson diagonalization with overlap
     ethr =  1.00E-06,  avg # of iterations =  4.0

     total cpu time spent up to now is    13960.9 secs

     total energy              =    -701.16494514 Ry
     Harris-Foulkes estimate   =    -701.03151835 Ry
     estimated scf accuracy    <       0.00079377 Ry

     iteration #  2     ecut=    50.00 Ry     beta= 0.60
     Davidson diagonalization with overlap
     c_bands:  1 eigenvalues not converged
     c_bands:  1 eigenvalues not converged
     c_bands:  1 eigenvalues not converged
     c_bands:  1 eigenvalues not converged
     c_bands:  1 eigenvalues not converged
     c_bands:  1 eigenvalues not converged
     c_bands:  1 eigenvalues not converged
     c_bands:  1 eigenvalues not converged
     c_bands:  1 eigenvalues not converged
     c_bands:  2 eigenvalues not converged
     c_bands:  1 eigenvalues not converged
     c_bands:  1 eigenvalues not converged
     c_bands:  1 eigenvalues not converged
     c_bands:  1 eigenvalues not converged
     c_bands:  1 eigenvalues not converged
     c_bands:  1 eigenvalues not converged
     c_bands:  1 eigenvalues not converged
     c_bands:  1 eigenvalues not converged
     c_bands:  1 eigenvalues not converged
     c_bands:  1 eigenvalues not converged
     c_bands:  1 eigenvalues not converged
     c_bands:  2 eigenvalues not converged
     c_bands:  1 eigenvalues not converged
     c_bands:  1 eigenvalues not converged
     c_bands:  1 eigenvalues not converged
     c_bands:  1 eigenvalues not converged
     c_bands:  1 eigenvalues not converged
     c_bands:  1 eigenvalues not converged
     c_bands:  1 eigenvalues not converged
     c_bands:  1 eigenvalues not converged
     ethr =  1.09E-06,  avg # of iterations =  7.0

     total cpu time spent up to now is    14140.1 secs

     total energy              =    -701.16223519 Ry
     Harris-Foulkes estimate   =    -701.16895807 Ry
     estimated scf accuracy    <       0.07650209 Ry

     iteration #  3     ecut=    50.00 Ry     beta= 0.60
     Davidson diagonalization with overlap
     ethr =  1.09E-06,  avg # of iterations =  6.5

     total cpu time spent up to now is    14300.9 secs

     total energy              =    -701.16543925 Ry
     Harris-Foulkes estimate   =    -701.16601194 Ry
     estimated scf accuracy    <       0.00378970 Ry

     iteration #  4     ecut=    50.00 Ry     beta= 0.60
     Davidson diagonalization with overlap
     ethr =  1.09E-06,  avg # of iterations =  4.1

     total cpu time spent up to now is    14417.9 secs

     total energy              =    -701.16558504 Ry
     Harris-Foulkes estimate   =    -701.16584046 Ry
     estimated scf accuracy    <       0.00159519 Ry

     iteration #  5     ecut=    50.00 Ry     beta= 0.60
     Davidson diagonalization with overlap
     ethr =  1.09E-06,  avg # of iterations =  2.5

     total cpu time spent up to now is    14506.8 secs

     total energy              =    -701.16567812 Ry
     Harris-Foulkes estimate   =    -701.16569703 Ry
     estimated scf accuracy    <       0.00015375 Ry

     iteration #  6     ecut=    50.00 Ry     beta= 0.60
     Davidson diagonalization with overlap
     ethr =  2.11E-07,  avg # of iterations =  3.9

     total cpu time spent up to now is    14615.8 secs

     total energy              =    -701.16568757 Ry
     Harris-Foulkes estimate   =    -701.16570391 Ry
     estimated scf accuracy    <       0.00009708 Ry

     iteration #  7     ecut=    50.00 Ry     beta= 0.60
     Davidson diagonalization with overlap
     ethr =  1.33E-07,  avg # of iterations =  1.1

     total cpu time spent up to now is    14696.2 secs

     total energy              =    -701.16567273 Ry
     Harris-Foulkes estimate   =    -701.16569020 Ry
     estimated scf accuracy    <       0.00004883 Ry

     iteration #  8     ecut=    50.00 Ry     beta= 0.60
     Davidson diagonalization with overlap
     ethr =  6.69E-08,  avg # of iterations =  3.0

     total cpu time spent up to now is    14802.1 secs

     total energy              =    -701.16568212 Ry
     Harris-Foulkes estimate   =    -701.16568244 Ry
     estimated scf accuracy    <       0.00000348 Ry

     iteration #  9     ecut=    50.00 Ry     beta= 0.60
     Davidson diagonalization with overlap
     ethr =  4.76E-09,  avg # of iterations =  4.1

     total cpu time spent up to now is    14920.1 secs

     total energy              =    -701.16568266 Ry
     Harris-Foulkes estimate   =    -701.16568276 Ry
     estimated scf accuracy    <       0.00000090 Ry

     iteration # 10     ecut=    50.00 Ry     beta= 0.60
     Davidson diagonalization with overlap
     ethr =  1.23E-09,  avg # of iterations =  2.3

     total cpu time spent up to now is    15008.9 secs

     total energy              =    -701.16568267 Ry
     Harris-Foulkes estimate   =    -701.16568271 Ry
     estimated scf accuracy    <       0.00000020 Ry

     iteration # 11     ecut=    50.00 Ry     beta= 0.60
     Davidson diagonalization with overlap
     ethr =  2.80E-10,  avg # of iterations =  3.7

     total cpu time spent up to now is    15114.7 secs

     total energy              =    -701.16568268 Ry
     Harris-Foulkes estimate   =    -701.16568270 Ry
     estimated scf accuracy    <       0.00000005 Ry

     iteration # 12     ecut=    50.00 Ry     beta= 0.60
     Davidson diagonalization with overlap
     ethr =  7.00E-11,  avg # of iterations =  4.1

     total cpu time spent up to now is    15229.6 secs

     total energy              =    -701.16568269 Ry
     Harris-Foulkes estimate   =    -701.16568269 Ry
     estimated scf accuracy    <       0.00000002 Ry

     iteration # 13     ecut=    50.00 Ry     beta= 0.60
     Davidson diagonalization with overlap
     ethr =  2.49E-11,  avg # of iterations =  2.3

     total cpu time spent up to now is    15318.8 secs

     total energy              =    -701.16568269 Ry
     Harris-Foulkes estimate   =    -701.16568269 Ry
     estimated scf accuracy    <          1.2E-09 Ry

     iteration # 14     ecut=    50.00 Ry     beta= 0.60
     Davidson diagonalization with overlap
     ethr =  1.66E-12,  avg # of iterations =  5.0

     total cpu time spent up to now is    15455.0 secs

     total energy              =    -701.16568269 Ry
     Harris-Foulkes estimate   =    -701.16568269 Ry
     estimated scf accuracy    <          5.9E-10 Ry

     iteration # 15     ecut=    50.00 Ry     beta= 0.60
     Davidson diagonalization with overlap
     ethr =  8.14E-13,  avg # of iterations =  1.0

     total cpu time spent up to now is    15536.2 secs

     total energy              =    -701.16568269 Ry
     Harris-Foulkes estimate   =    -701.16568269 Ry
     estimated scf accuracy    <          2.4E-10 Ry

     iteration # 16     ecut=    50.00 Ry     beta= 0.60
     Davidson diagonalization with overlap
     ethr =  3.26E-13,  avg # of iterations =  3.9

     total cpu time spent up to now is    15647.3 secs

     total energy              =    -701.16568269 Ry
     Harris-Foulkes estimate   =    -701.16568269 Ry
     estimated scf accuracy    <          1.0E-10 Ry

     iteration # 17     ecut=    50.00 Ry     beta= 0.60
     Davidson diagonalization with overlap
[...]
     Harris-Foulkes estimate   =    -701.18173808 Ry
     estimated scf accuracy    <       0.00000210 Ry

     iteration #  4     ecut=    50.00 Ry     beta= 0.60
     Davidson diagonalization with overlap
     ethr =  8.20E-10,  avg # of iterations =  4.4

     total cpu time spent up to now is    92257.0 secs

     total energy              =    -701.18173782 Ry
     Harris-Foulkes estimate   =    -701.18173795 Ry
     estimated scf accuracy    <       0.00000075 Ry

     iteration #  5     ecut=    50.00 Ry     beta= 0.60
     Davidson diagonalization with overlap
     ethr =  8.20E-10,  avg # of iterations =  1.6

     total cpu time spent up to now is    92339.7 secs

     total energy              =    -701.18173786 Ry
     Harris-Foulkes estimate   =    -701.18173787 Ry
     estimated scf accuracy    <       0.00000008 Ry

     iteration #  6     ecut=    50.00 Ry     beta= 0.60
     Davidson diagonalization with overlap
     ethr =  1.09E-10,  avg # of iterations =  4.1

     total cpu time spent up to now is    92455.7 secs

     total energy              =    -701.18173786 Ry
     Harris-Foulkes estimate   =    -701.18173788 Ry
     estimated scf accuracy    <       0.00000009 Ry

     iteration #  7     ecut=    50.00 Ry     beta= 0.60
     Davidson diagonalization with overlap
     ethr =  1.09E-10,  avg # of iterations =  1.0

     total cpu time spent up to now is    92535.5 secs

     total energy              =    -701.18173786 Ry
     Harris-Foulkes estimate   =    -701.18173787 Ry
     estimated scf accuracy    <       0.00000004 Ry

     iteration #  8     ecut=    50.00 Ry     beta= 0.60
     Davidson diagonalization with overlap
     ethr =  6.05E-11,  avg # of iterations =  2.2

     total cpu time spent up to now is    92632.1 secs

     total energy              =    -701.18173786 Ry
     Harris-Foulkes estimate   =    -701.18173786 Ry
     estimated scf accuracy    <       0.00000001 Ry

     iteration #  9     ecut=    50.00 Ry     beta= 0.60
     Davidson diagonalization with overlap
     ethr =  1.89E-11,  avg # of iterations =  2.4

     total cpu time spent up to now is    92717.8 secs

     total energy              =    -701.18173786 Ry
     Harris-Foulkes estimate   =    -701.18173786 Ry
     estimated scf accuracy    <          3.8E-09 Ry

     iteration # 10     ecut=    50.00 Ry     beta= 0.60
     Davidson diagonalization with overlap
     ethr =  5.26E-12,  avg # of iterations =  4.0

     total cpu time spent up to now is    92829.5 secs

     total energy              =    -701.18173786 Ry
     Harris-Foulkes estimate   =    -701.18173786 Ry
     estimated scf accuracy    <          2.9E-10 Ry

     iteration # 11     ecut=    50.00 Ry     beta= 0.60
     Davidson diagonalization with overlap
     ethr =  3.92E-13,  avg # of iterations =  3.6

     total cpu time spent up to now is    92927.6 secs

     total energy              =    -701.18173786 Ry
     Harris-Foulkes estimate   =    -701.18173786 Ry
     estimated scf accuracy    <          2.6E-10 Ry

     iteration # 12     ecut=    50.00 Ry     beta= 0.60
     Davidson diagonalization with overlap
     ethr =  3.50E-13,  avg # of iterations =  1.9

     total cpu time spent up to now is    93011.2 secs

     total energy              =    -701.18173786 Ry
     Harris-Foulkes estimate   =    -701.18173786 Ry
     estimated scf accuracy    <          3.5E-11 Ry

     iteration # 13     ecut=    50.00 Ry     beta= 0.60
     Davidson diagonalization with overlap
     ethr =  1.00E-13,  avg # of iterations =  4.0

     total cpu time spent up to now is    93116.9 secs

     total energy              =    -701.18173786 Ry
     Harris-Foulkes estimate   =    -701.18173786 Ry
     estimated scf accuracy    <          5.0E-12 Ry

     iteration # 14     ecut=    50.00 Ry     beta= 0.60
     Davidson diagonalization with overlap
     ethr =  1.00E-13,  avg # of iterations =  1.0

     total cpu time spent up to now is    93196.3 secs

     End of self-consistent calculation

     Number of k-points >= 100: set verbosity='high' to print the bands.

     the Fermi energy is    14.0624 ev

!    total energy              =    -701.18173786 Ry
     Harris-Foulkes estimate   =    -701.18173786 Ry
     estimated scf accuracy    <          9.0E-14 Ry

     The total energy is the sum of the following terms:

     one-electron contribution =    -224.00759575 Ry
     hartree contribution      =     137.55500701 Ry
     xc contribution           =     -91.12690095 Ry
     ewald contribution        =    -523.60449167 Ry
     smearing contrib. (-TS)   =       0.00224350 Ry

     convergence has been achieved in  14 iterations

     Forces acting on atoms (cartesian axes, Ry/au):

     atom    1 type  2   force =     0.00000252   -0.00000638    0.00000354
     atom    2 type  2   force =    -0.00000017    0.00000031    0.00001208
     atom    3 type  2   force =     0.00000000    0.00000000    0.00000000
     atom    4 type  2   force =     0.00000017   -0.00000031   -0.00001208
     atom    5 type  2   force =    -0.00000252    0.00000638   -0.00000354
     atom    6 type  1   force =     0.00000000    0.00000000    0.00000000

     Total force =     0.000020     Total SCF correction =     0.000000


     Computing stress (Cartesian axis) and pressure

          total   stress  (Ry/bohr**3)                   (kbar)     P=   -0.00
   0.00000003  -0.00000010   0.00000001          0.00     -0.01      0.00
  -0.00000010   0.00000008  -0.00000003         -0.01      0.01     -0.00
   0.00000001  -0.00000003  -0.00000011          0.00     -0.00     -0.02


     number of scf cycles    =  45
     number of bfgs steps    =  44

     enthalpy old            =    -701.1817378419 Ry
     enthalpy new            =    -701.1817378613 Ry

     CASE: enthalpy_new < enthalpy_old

     new trust radius        =       0.0001093279 bohr
     new conv_thr            =            1.2E-12 Ry

     new unit-cell volume =    703.11060 a.u.^3 (   104.19024 Ang^3 )
     density =      5.29512 g/cm^3

CELL_PARAMETERS (alat=  1.88972599)
  -1.585015853  -1.660365973  -1.715042565
   1.560882866   1.565876676  -5.035297790
   4.708294455  -4.914088651  -1.749049884

ATOMIC_POSITIONS (angstrom)
Ti       2.918211259  -3.611671667  -7.013893095
Ti       1.558327468  -1.770918996  -5.240157583
Ti       4.696227962  -4.961333300  -5.124220061
Ti       3.125834000  -3.237658952  -3.259232655
Ti       1.765950209  -1.396906281  -1.485497144
Nb       4.684161468  -5.008577948  -8.499390239


     NEW-OLD atomic charge density approx. for the potential
     extrapolated charge   72.99953, renormalised to   73.00000

     total cpu time spent up to now is    93242.5 secs

     Self-consistent Calculation

     iteration #  1     ecut=    50.00 Ry     beta= 0.60
     Davidson diagonalization with overlap
     ethr =  1.00E-06,  avg # of iterations =  2.0

     Threshold (ethr) on eigenvalues was too large:
     Diagonalizing with lowered threshold

     Davidson diagonalization with overlap
     ethr =  6.01E-11,  avg # of iterations =  3.8

     total cpu time spent up to now is    93478.5 secs

     total energy              =    -701.18173781 Ry
     Harris-Foulkes estimate   =    -701.18277039 Ry
     estimated scf accuracy    <       0.00000006 Ry

     iteration #  2     ecut=    50.00 Ry     beta= 0.60
     Davidson diagonalization with overlap
     ethr =  8.43E-11,  avg # of iterations =  5.5

     total cpu time spent up to now is    93635.4 secs

     total energy              =    -701.18173764 Ry
     Harris-Foulkes estimate   =    -701.18173808 Ry
     estimated scf accuracy    <       0.00000404 Ry

     iteration #  3     ecut=    50.00 Ry     beta= 0.60
     Davidson diagonalization with overlap
     ethr =  8.43E-11,  avg # of iterations =  5.5

     total cpu time spent up to now is    93773.4 secs

     total energy              =    -701.18173785 Ry
     Harris-Foulkes estimate   =    -701.18173788 Ry
     estimated scf accuracy    <       0.00000016 Ry

     iteration #  4     ecut=    50.00 Ry     beta= 0.60
     Davidson diagonalization with overlap
     ethr =  8.43E-11,  avg # of iterations =  3.9

     total cpu time spent up to now is    93883.3 secs

     total energy              =    -701.18173786 Ry
     Harris-Foulkes estimate   =    -701.18173787 Ry
     estimated scf accuracy    <       0.00000007 Ry

     iteration #  5     ecut=    50.00 Ry     beta= 0.60
     Davidson diagonalization with overlap
     ethr =  8.43E-11,  avg # of iterations =  1.6

     total cpu time spent up to now is    93966.1 secs

     total energy              =    -701.18173786 Ry
     Harris-Foulkes estimate   =    -701.18173786 Ry
     estimated scf accuracy    <          7.9E-09 Ry

     iteration #  6     ecut=    50.00 Ry     beta= 0.60
     Davidson diagonalization with overlap
     ethr =  1.08E-11,  avg # of iterations =  4.1

     total cpu time spent up to now is    94082.4 secs

     total energy              =    -701.18173786 Ry
     Harris-Foulkes estimate   =    -701.18173787 Ry
     estimated scf accuracy    <          7.5E-09 Ry

     iteration #  7     ecut=    50.00 Ry     beta= 0.60
     Davidson diagonalization with overlap
     ethr =  1.03E-11,  avg # of iterations =  1.2

     total cpu time spent up to now is    94163.3 secs

     total energy              =    -701.18173786 Ry
     Harris-Foulkes estimate   =    -701.18173786 Ry
     estimated scf accuracy    <          2.8E-09 Ry

     iteration #  8     ecut=    50.00 Ry     beta= 0.60
     Davidson diagonalization with overlap
     ethr =  3.89E-12,  avg # of iterations =  3.6

     total cpu time spent up to now is    94268.9 secs

     total energy              =    -701.18173786 Ry
     Harris-Foulkes estimate   =    -701.18173786 Ry
     estimated scf accuracy    <          1.0E-09 Ry

     iteration #  9     ecut=    50.00 Ry     beta= 0.60
     Davidson diagonalization with overlap
     ethr =  1.38E-12,  avg # of iterations =  1.7

     total cpu time spent up to now is    94352.1 secs

     total energy              =    -701.18173786 Ry
     Harris-Foulkes estimate   =    -701.18173786 Ry
     estimated scf accuracy    <          4.1E-10 Ry

     iteration # 10     ecut=    50.00 Ry     beta= 0.60
     Davidson diagonalization with overlap
     ethr =  5.58E-13,  avg # of iterations =  3.3

     total cpu time spent up to now is    94449.3 secs

     total energy              =    -701.18173786 Ry
     Harris-Foulkes estimate   =    -701.18173786 Ry
     estimated scf accuracy    <          2.6E-11 Ry

     iteration # 11     ecut=    50.00 Ry     beta= 0.60
     Davidson diagonalization with overlap
     ethr =  1.00E-13,  avg # of iterations =  3.8

     total cpu time spent up to now is    94553.8 secs

     total energy              =    -701.18173786 Ry
     Harris-Foulkes estimate   =    -701.18173786 Ry
     estimated scf accuracy    <          8.0E-12 Ry

     iteration # 12     ecut=    50.00 Ry     beta= 0.60
     Davidson diagonalization with overlap
     ethr =  1.00E-13,  avg # of iterations =  1.0

     total cpu time spent up to now is    94633.8 secs

     End of self-consistent calculation

     Number of k-points >= 100: set verbosity='high' to print the bands.

     the Fermi energy is    14.0625 ev

!    total energy              =    -701.18173786 Ry
     Harris-Foulkes estimate   =    -701.18173786 Ry
     estimated scf accuracy    <          3.0E-13 Ry

     The total energy is the sum of the following terms:

     one-electron contribution =    -224.00537918 Ry
     hartree contribution      =     137.55424849 Ry
     xc contribution           =     -91.12692967 Ry
     ewald contribution        =    -523.60592100 Ry
     smearing contrib. (-TS)   =       0.00224349 Ry

     convergence has been achieved in  12 iterations

     Forces acting on atoms (cartesian axes, Ry/au):

     atom    1 type  2   force =     0.00000004   -0.00000228   -0.00000064
     atom    2 type  2   force =     0.00000244   -0.00000365    0.00000508
     atom    3 type  2   force =     0.00000000    0.00000000    0.00000000
     atom    4 type  2   force =    -0.00000244    0.00000365   -0.00000508
     atom    5 type  2   force =    -0.00000004    0.00000228    0.00000064
     atom    6 type  1   force =     0.00000000    0.00000000    0.00000000

     Total force =     0.000010     Total SCF correction =     0.000002
     SCF correction compared to forces is large: reduce conv_thr to get better values


     Computing stress (Cartesian axis) and pressure

          total   stress  (Ry/bohr**3)                   (kbar)     P=    0.01
   0.00000005  -0.00000002   0.00000004          0.01     -0.00      0.01
  -0.00000002   0.00000011  -0.00000002         -0.00      0.02     -0.00
   0.00000004  -0.00000002  -0.00000003          0.01     -0.00     -0.00


     number of scf cycles    =  46
     number of bfgs steps    =  45

     enthalpy old            =    -701.1817378613 Ry
     enthalpy new            =    -701.1817378643 Ry

     CASE: enthalpy_new < enthalpy_old

     small trust_radius: resetting bfgs history

     new trust radius        =       0.0000152055 bohr
     new conv_thr            =            1.0E-12 Ry

     new unit-cell volume =    703.11292 a.u.^3 (   104.19058 Ang^3 )
     density =      5.29510 g/cm^3

CELL_PARAMETERS (alat=  1.88972599)
  -1.585018989  -1.660368944  -1.715042121
   1.560878677   1.565883404  -5.035293561
   4.708300203  -4.914103109  -1.749040647

ATOMIC_POSITIONS (angstrom)
Ti       2.918208624  -3.611679885  -7.013883294
Ti       1.558325654  -1.770923342  -5.240148548
Ti       4.696230047  -4.961345879  -5.124208488
Ti       3.125834237  -3.237665306  -3.259227782
Ti       1.765951267  -1.396908764  -1.485493036
Nb       4.684159891  -5.008588649  -8.499376330


     NEW-OLD atomic charge density approx. for the potential
     extrapolated charge   73.00022, renormalised to   73.00000

     total cpu time spent up to now is    94680.0 secs

     Self-consistent Calculation

     iteration #  1     ecut=    50.00 Ry     beta= 0.60
     Davidson diagonalization with overlap
     ethr =  1.00E-06,  avg # of iterations =  2.0

     Threshold (ethr) on eigenvalues was too large:
     Diagonalizing with lowered threshold

     Davidson diagonalization with overlap
     ethr =  5.22E-12,  avg # of iterations =  2.5

     total cpu time spent up to now is    94874.9 secs

     total energy              =    -701.18173786 Ry
     Harris-Foulkes estimate   =    -701.18124002 Ry
     estimated scf accuracy    <          4.5E-09 Ry

     iteration #  2     ecut=    50.00 Ry     beta= 0.60
     Davidson diagonalization with overlap
     ethr =  6.12E-12,  avg # of iterations =  5.0

     total cpu time spent up to now is    95042.5 secs

     total energy              =    -701.18173786 Ry
     Harris-Foulkes estimate   =    -701.18173787 Ry
     estimated scf accuracy    <       0.00000004 Ry

     iteration #  3     ecut=    50.00 Ry     beta= 0.60
     Davidson diagonalization with overlap
     ethr =  6.12E-12,  avg # of iterations =  5.1

     total cpu time spent up to now is    95172.8 secs

     total energy              =    -701.18173786 Ry
     Harris-Foulkes estimate   =    -701.18173787 Ry
     estimated scf accuracy    <       0.00000004 Ry

     iteration #  4     ecut=    50.00 Ry     beta= 0.60
     Davidson diagonalization with overlap
     ethr =  6.12E-12,  avg # of iterations =  4.4

     total cpu time spent up to now is    95290.8 secs

     total energy              =    -701.18173786 Ry
     Harris-Foulkes estimate   =    -701.18173787 Ry
     estimated scf accuracy    <          3.3E-09 Ry

     iteration #  5     ecut=    50.00 Ry     beta= 0.60
     Davidson diagonalization with overlap
     ethr =  4.47E-12,  avg # of iterations =  1.0

     total cpu time spent up to now is    95370.6 secs

     total energy              =    -701.18173786 Ry
     Harris-Foulkes estimate   =    -701.18173786 Ry
     estimated scf accuracy    <          1.1E-09 Ry

     iteration #  6     ecut=    50.00 Ry     beta= 0.60
     Davidson diagonalization with overlap
     ethr =  1.53E-12,  avg # of iterations =  2.2

     total cpu time spent up to now is    95455.8 secs

     total energy              =    -701.18173786 Ry
     Harris-Foulkes estimate   =    -701.18173786 Ry
     estimated scf accuracy    <          9.0E-10 Ry

     iteration #  7     ecut=    50.00 Ry     beta= 0.60
     Davidson diagonalization with overlap
     ethr =  1.23E-12,  avg # of iterations =  1.0

     total cpu time spent up to now is    95535.9 secs

     total energy              =    -701.18173786 Ry
     Harris-Foulkes estimate   =    -701.18173786 Ry
     estimated scf accuracy    <          6.8E-10 Ry

     iteration #  8     ecut=    50.00 Ry     beta= 0.60
     Davidson diagonalization with overlap
     ethr =  9.33E-13,  avg # of iterations =  1.7

     total cpu time spent up to now is    95619.4 secs

     total energy              =    -701.18173786 Ry
     Harris-Foulkes estimate   =    -701.18173786 Ry
     estimated scf accuracy    <          3.1E-10 Ry

     iteration #  9     ecut=    50.00 Ry     beta= 0.60
     Davidson diagonalization with overlap
     ethr =  4.22E-13,  avg # of iterations =  3.4

     total cpu time spent up to now is    95726.5 secs

     total energy              =    -701.18173786 Ry
     Harris-Foulkes estimate   =    -701.18173786 Ry
     estimated scf accuracy    <          4.4E-12 Ry

     iteration # 10     ecut=    50.00 Ry     beta= 0.60
     Davidson diagonalization with overlap
     ethr =  1.00E-13,  avg # of iterations =  2.0

     total cpu time spent up to now is    95810.8 secs

     total energy              =    -701.18173786 Ry
     Harris-Foulkes estimate   =    -701.18173786 Ry
     estimated scf accuracy    <          4.1E-12 Ry

     iteration # 11     ecut=    50.00 Ry     beta= 0.60
     Davidson diagonalization with overlap
     ethr =  1.00E-13,  avg # of iterations =  1.0

     total cpu time spent up to now is    95890.2 secs

     total energy              =    -701.18173786 Ry
     Harris-Foulkes estimate   =    -701.18173786 Ry
     estimated scf accuracy    <          3.3E-12 Ry

     iteration # 12     ecut=    50.00 Ry     beta= 0.60
     Davidson diagonalization with overlap
     ethr =  1.00E-13,  avg # of iterations =  1.0

     total cpu time spent up to now is    95969.6 secs

     End of self-consistent calculation

     Number of k-points >= 100: set verbosity='high' to print the bands.

     the Fermi energy is    14.0624 ev

!    total energy              =    -701.18173786 Ry
     Harris-Foulkes estimate   =    -701.18173786 Ry
     estimated scf accuracy    <          2.5E-13 Ry

     The total energy is the sum of the following terms:

     one-electron contribution =    -224.00618789 Ry
     hartree contribution      =     137.55448159 Ry
     xc contribution           =     -91.12691148 Ry
     ewald contribution        =    -523.60536358 Ry
     smearing contrib. (-TS)   =       0.00224349 Ry

     convergence has been achieved in  12 iterations

     Forces acting on atoms (cartesian axes, Ry/au):

     atom    1 type  2   force =     0.00000042   -0.00000175   -0.00000125
     atom    2 type  2   force =     0.00000235   -0.00000283    0.00000417
     atom    3 type  2   force =     0.00000000    0.00000000    0.00000000
     atom    4 type  2   force =    -0.00000235    0.00000283   -0.00000417
     atom    5 type  2   force =    -0.00000042    0.00000175    0.00000125
     atom    6 type  1   force =     0.00000000    0.00000000    0.00000000

     Total force =     0.000008     Total SCF correction =     0.000002
     SCF correction compared to forces is large: reduce conv_thr to get better values


     Computing stress (Cartesian axis) and pressure

