
     Program PWSCF v.6.3MaX starts on  8Feb2020 at 12:38:21 

     This program is part of the open-source Quantum ESPRESSO suite
     for quantum simulation of materials; please cite
         "P. Giannozzi et al., J. Phys.:Condens. Matter 21 395502 (2009);
         "P. Giannozzi et al., J. Phys.:Condens. Matter 29 465901 (2017);
          URL http://www.quantum-espresso.org", 
     in publications or presentations arising from this work. More details at
     http://www.quantum-espresso.org/quote

     Parallel version (MPI), running on     4 processors

     MPI processes distributed on     1 nodes
     R & G space division:  proc/nbgrp/npool/nimage =       4
     Waiting for input...
     Reading input from standard input

     Current dimensions of program PWSCF are:
     Max number of different atomic species (ntypx) = 10
     Max number of k-points (npk) =  40000
     Max angular momentum in pseudopotentials (lmaxx) =  3
     Message from routine iosys:
     minimal I/O required, wf_collect reset to FALSE

     Subspace diagonalization in iterative solution of the eigenvalue problem:
     a serial algorithm will be used

 
     Parallelization info
     --------------------
     sticks:   dense  smooth     PW     G-vecs:    dense   smooth      PW
     Min         780     312     93                36414     9205    1526
     Max         781     313     94                36416     9206    1527
     Sum        3121    1251    375               145661    36823    6107
 


     bravais-lattice index     =            0
     lattice parameter (alat)  =       1.8897  a.u.
     unit-cell volume          =    1077.7903 (a.u.)^3
     number of atoms/cell      =            8
     number of atomic types    =            2
     number of electrons       =       103.00
     number of Kohn-Sham states=           62
     kinetic-energy cutoff     =      40.0000  Ry
     charge density cutoff     =     400.0000  Ry
     convergence threshold     =      1.0E-10
     mixing beta               =       0.6000
     number of iterations used =            8  plain     mixing
     Exchange-correlation      = SLA PW PBE PBE ( 1  4  3  4 0 0)
     nstep                     =           50


     celldm(1)=   1.889726  celldm(2)=   0.000000  celldm(3)=   0.000000
     celldm(4)=   0.000000  celldm(5)=   0.000000  celldm(6)=   0.000000

     crystal axes: (cart. coord. in units of alat)
               a(1) = (   1.522502   2.637051  -4.972461 )  
               a(2) = (   1.522502  -2.637051  -4.972461 )  
               a(3) = (  -6.090008   0.000000   0.000000 )  

     reciprocal axes: (cart. coord. in units 2 pi/alat)
               b(1) = (  0.000000  0.189606 -0.100554 )  
               b(2) = (  0.000000 -0.189606 -0.100554 )  
               b(3) = ( -0.164203  0.000000 -0.050277 )  


     PseudoPot. # 1 for Nb read from file:
     ./Nb.pbe-nsp-van.UPF
     MD5 check sum: 0a22fc7fb0ba19a08ca5db297a5d2854
     Pseudo is Ultrasoft + core correction, Zval = 13.0
     Generated by new atomic code, or converted to UPF format
     Using radial grid of  887 points,  6 beta functions with: 
                l(1) =   0
                l(2) =   0
                l(3) =   1
                l(4) =   1
                l(5) =   2
                l(6) =   2
     Q(r) pseudized with  6 coefficients,  rinner =    1.000   1.000   1.000
                                                       1.000   1.000

     PseudoPot. # 2 for Ti read from file:
     ./Ti.pbe-sp-van_ak.UPF
     MD5 check sum: f98fea3e8887528921fefa5636a534ca
     Pseudo is Ultrasoft, Zval = 12.0
     Generated by new atomic code, or converted to UPF format
     Using radial grid of  851 points,  6 beta functions with: 
                l(1) =   0
                l(2) =   0
                l(3) =   1
                l(4) =   1
                l(5) =   2
                l(6) =   2
     Q(r) pseudized with  8 coefficients,  rinner =    1.000   1.000   1.000
                                                       1.000   1.000

     atomic species   valence    mass     pseudopotential
        Nb            13.00    92.90638     Nb( 1.00)
        Ti            12.00    47.86700     Ti( 1.00)

     No symmetry found
          (note:  1 additional sym.ops. were found but ignored
           their fractional translations are incommensurate with FFT grid)


   Cartesian axes

     site n.     atom                  positions (alat units)
         1           Ti  tau(   1) = (   0.0000000   0.0000000  -4.9724614  )
         2           Nb  tau(   2) = (  -1.5225006   0.8790162  -2.4862307  )
         3           Nb  tau(   3) = (  -3.0450042   0.0000000  -4.9724614  )
         4           Nb  tau(   4) = (  -4.5675048   0.8790162  -2.4862307  )
         5           Nb  tau(   5) = (  -3.0450042   0.0000000  -9.9449228  )
         6           Nb  tau(   6) = (   1.5225036   0.8790162  -7.4586921  )
         7           Nb  tau(   7) = (   0.0000000   0.0000000  -9.9449228  )
         8           Nb  tau(   8) = (  -1.5225006   0.8790162  -7.4586921  )

     number of k points=   504  Marzari-Vanderbilt smearing, width (Ry)=  0.0200

     Number of k-points >= 100: set verbosity='high' to print them.

     Dense  grid:   145661 G-vectors     FFT dimensions: (  72,  72,  75)

     Smooth grid:    36823 G-vectors     FFT dimensions: (  45,  45,  48)

     Estimated max dynamical RAM per process >     693.06 MB

     Estimated total dynamical RAM >       2.71 GB

     Check: negative/imaginary core charge=   -0.000001    0.000000

     Initial potential from superposition of free atoms

     starting charge  101.98082, renormalised to  103.00000
     Starting wfcs are  101 randomized atomic wfcs

     total cpu time spent up to now is       51.6 secs

     Self-consistent Calculation

     iteration #  1     ecut=    40.00 Ry     beta= 0.60
     Davidson diagonalization with overlap
     ethr =  1.00E-02,  avg # of iterations =  2.0

     total cpu time spent up to now is      149.2 secs

     total energy              =    -918.79402603 Ry
     Harris-Foulkes estimate   =    -944.65754292 Ry
     estimated scf accuracy    <      32.34138718 Ry

     iteration #  2     ecut=    40.00 Ry     beta= 0.60
     Davidson diagonalization with overlap
     ethr =  1.00E-02,  avg # of iterations =  5.0

     total cpu time spent up to now is      321.9 secs

     total energy              =    -923.46408985 Ry
     Harris-Foulkes estimate   =    -978.59468690 Ry
     estimated scf accuracy    <     178.77821996 Ry

     iteration #  3     ecut=    40.00 Ry     beta= 0.60
     Davidson diagonalization with overlap
     ethr =  1.00E-02,  avg # of iterations =  5.0

     total cpu time spent up to now is      490.0 secs

     total energy              =    -941.38100981 Ry
     Harris-Foulkes estimate   =    -948.08038315 Ry
     estimated scf accuracy    <      35.66913395 Ry

     iteration #  4     ecut=    40.00 Ry     beta= 0.60
     Davidson diagonalization with overlap
     ethr =  1.00E-02,  avg # of iterations =  3.0

     total cpu time spent up to now is      592.4 secs

     total energy              =    -943.39148292 Ry
     Harris-Foulkes estimate   =    -944.04093061 Ry
     estimated scf accuracy    <       7.99542209 Ry

     iteration #  5     ecut=    40.00 Ry     beta= 0.60
     Davidson diagonalization with overlap
     ethr =  7.76E-03,  avg # of iterations =  1.2

     total cpu time spent up to now is      673.9 secs

     total energy              =    -943.27329893 Ry
     Harris-Foulkes estimate   =    -943.58573369 Ry
     estimated scf accuracy    <       5.54626999 Ry

     iteration #  6     ecut=    40.00 Ry     beta= 0.60
     Davidson diagonalization with overlap
     ethr =  5.38E-03,  avg # of iterations =  1.0

     total cpu time spent up to now is      754.6 secs

     total energy              =    -942.67018692 Ry
     Harris-Foulkes estimate   =    -943.31697772 Ry
     estimated scf accuracy    <       4.89733755 Ry

     iteration #  7     ecut=    40.00 Ry     beta= 0.60
     Davidson diagonalization with overlap
     ethr =  4.75E-03,  avg # of iterations =  1.0

     total cpu time spent up to now is      834.8 secs

     total energy              =    -941.96252219 Ry
     Harris-Foulkes estimate   =    -942.75021854 Ry
     estimated scf accuracy    <       3.85342256 Ry

     iteration #  8     ecut=    40.00 Ry     beta= 0.60
     Davidson diagonalization with overlap
     ethr =  3.74E-03,  avg # of iterations =  1.6

     total cpu time spent up to now is      917.6 secs

     total energy              =    -942.12698115 Ry
     Harris-Foulkes estimate   =    -942.08872639 Ry
     estimated scf accuracy    <       1.57303027 Ry

     iteration #  9     ecut=    40.00 Ry     beta= 0.60
     Davidson diagonalization with overlap
     ethr =  1.53E-03,  avg # of iterations =  1.4

     total cpu time spent up to now is     1000.2 secs

     total energy              =    -941.96266937 Ry
     Harris-Foulkes estimate   =    -942.14820897 Ry
     estimated scf accuracy    <       1.59007147 Ry

     iteration # 10     ecut=    40.00 Ry     beta= 0.60
     Davidson diagonalization with overlap
     ethr =  1.53E-03,  avg # of iterations =  2.5

     total cpu time spent up to now is     1089.1 secs

     total energy              =    -941.52415126 Ry
     Harris-Foulkes estimate   =    -942.00673601 Ry
     estimated scf accuracy    <       0.69212731 Ry

     iteration # 11     ecut=    40.00 Ry     beta= 0.60
     Davidson diagonalization with overlap
     ethr =  6.72E-04,  avg # of iterations =  4.0

     total cpu time spent up to now is     1237.4 secs

     total energy              =    -940.34329400 Ry
     Harris-Foulkes estimate   =    -944.26695469 Ry
     estimated scf accuracy    <      32.11181185 Ry

     iteration # 12     ecut=    40.00 Ry     beta= 0.60
     Davidson diagonalization with overlap
     ethr =  6.72E-04,  avg # of iterations =  5.7

     total cpu time spent up to now is     1386.6 secs

     total energy              =    -941.98149680 Ry
     Harris-Foulkes estimate   =    -941.99611958 Ry
     estimated scf accuracy    <       0.12428990 Ry

     iteration # 13     ecut=    40.00 Ry     beta= 0.60
     Davidson diagonalization with overlap
     ethr =  1.21E-04,  avg # of iterations =  2.5

     total cpu time spent up to now is     1476.6 secs

     total energy              =    -942.00267708 Ry
     Harris-Foulkes estimate   =    -941.98405866 Ry
     estimated scf accuracy    <       0.07077062 Ry

     iteration # 14     ecut=    40.00 Ry     beta= 0.60
     Davidson diagonalization with overlap
     ethr =  6.87E-05,  avg # of iterations =  6.0

     total cpu time spent up to now is     1634.6 secs

     total energy              =    -941.98402991 Ry
     Harris-Foulkes estimate   =    -942.05008579 Ry
     estimated scf accuracy    <       0.72020002 Ry

     iteration # 15     ecut=    40.00 Ry     beta= 0.60
     Davidson diagonalization with overlap
     ethr =  6.87E-05,  avg # of iterations =  4.4

     total cpu time spent up to now is     1748.6 secs

     total energy              =    -941.97476333 Ry
     Harris-Foulkes estimate   =    -941.99651195 Ry
     estimated scf accuracy    <       0.24807427 Ry

     iteration # 16     ecut=    40.00 Ry     beta= 0.60
     Davidson diagonalization with overlap
     ethr =  6.87E-05,  avg # of iterations =  1.1

     total cpu time spent up to now is     1832.0 secs

     total energy              =    -941.97744279 Ry
     Harris-Foulkes estimate   =    -941.97781013 Ry
     estimated scf accuracy    <       0.12093832 Ry

     iteration # 17     ecut=    40.00 Ry     beta= 0.60
     Davidson diagonalization with overlap
     ethr =  6.87E-05,  avg # of iterations =  1.1

     total cpu time spent up to now is     1913.7 secs

     total energy              =    -941.98052950 Ry
     Harris-Foulkes estimate   =    -941.97830550 Ry
     estimated scf accuracy    <       0.12141292 Ry

     iteration # 18     ecut=    40.00 Ry     beta= 0.60
     Davidson diagonalization with overlap
     ethr =  6.87E-05,  avg # of iterations =  1.0

     total cpu time spent up to now is     1995.5 secs

     total energy              =    -941.96640467 Ry
     Harris-Foulkes estimate   =    -941.98104375 Ry
     estimated scf accuracy    <       0.13965276 Ry

     iteration # 19     ecut=    40.00 Ry     beta= 0.60
     Davidson diagonalization with overlap
     ethr =  6.87E-05,  avg # of iterations =  4.4

     total cpu time spent up to now is     2100.2 secs

     total energy              =    -941.97106483 Ry
     Harris-Foulkes estimate   =    -941.97164469 Ry
     estimated scf accuracy    <       0.01505870 Ry

     iteration # 20     ecut=    40.00 Ry     beta= 0.60
     Davidson diagonalization with overlap
     ethr =  1.46E-05,  avg # of iterations =  3.4

     total cpu time spent up to now is     2196.6 secs

     total energy              =    -941.97052852 Ry
     Harris-Foulkes estimate   =    -941.97121837 Ry
     estimated scf accuracy    <       0.01433919 Ry

     iteration # 21     ecut=    40.00 Ry     beta= 0.60
     Davidson diagonalization with overlap
     ethr =  1.39E-05,  avg # of iterations =  1.0

     total cpu time spent up to now is     2277.7 secs

     total energy              =    -941.96853453 Ry
     Harris-Foulkes estimate   =    -941.97129827 Ry
     estimated scf accuracy    <       0.02902691 Ry

     iteration # 22     ecut=    40.00 Ry     beta= 0.60
     Davidson diagonalization with overlap
     ethr =  1.39E-05,  avg # of iterations =  1.2

     total cpu time spent up to now is     2359.3 secs

     total energy              =    -941.96885191 Ry
     Harris-Foulkes estimate   =    -941.96934775 Ry
     estimated scf accuracy    <       0.00884777 Ry

     iteration # 23     ecut=    40.00 Ry     beta= 0.60
     Davidson diagonalization with overlap
     ethr =  8.59E-06,  avg # of iterations =  2.4

     total cpu time spent up to now is     2447.8 secs

     total energy              =    -941.96854533 Ry
     Harris-Foulkes estimate   =    -941.96909683 Ry
     estimated scf accuracy    <       0.00420566 Ry

     iteration # 24     ecut=    40.00 Ry     beta= 0.60
     Davidson diagonalization with overlap
     ethr =  4.08E-06,  avg # of iterations =  6.3

     total cpu time spent up to now is     2581.3 secs

     total energy              =    -941.96897489 Ry
     Harris-Foulkes estimate   =    -941.96909952 Ry
     estimated scf accuracy    <       0.00082846 Ry

     iteration # 25     ecut=    40.00 Ry     beta= 0.60
     Davidson diagonalization with overlap
     ethr =  8.04E-07,  avg # of iterations =  1.5

     total cpu time spent up to now is     2665.2 secs

     total energy              =    -941.96901565 Ry
     Harris-Foulkes estimate   =    -941.96903450 Ry
     estimated scf accuracy    <       0.00024143 Ry

     iteration # 26     ecut=    40.00 Ry     beta= 0.60
     Davidson diagonalization with overlap
     ethr =  2.34E-07,  avg # of iterations =  3.0

     total cpu time spent up to now is     2764.5 secs

     total energy              =    -941.96902127 Ry
     Harris-Foulkes estimate   =    -941.96903638 Ry
     estimated scf accuracy    <       0.00014579 Ry

     iteration # 27     ecut=    40.00 Ry     beta= 0.60
     Davidson diagonalization with overlap
     ethr =  1.42E-07,  avg # of iterations =  1.1

     total cpu time spent up to now is     2845.9 secs

     total energy              =    -941.96902343 Ry
     Harris-Foulkes estimate   =    -941.96902835 Ry
     estimated scf accuracy    <       0.00005382 Ry

     iteration # 28     ecut=    40.00 Ry     beta= 0.60
     Davidson diagonalization with overlap
     ethr =  5.23E-08,  avg # of iterations =  3.0

     total cpu time spent up to now is     2943.7 secs

     total energy              =    -941.96902593 Ry
     Harris-Foulkes estimate   =    -941.96902783 Ry
     estimated scf accuracy    <       0.00001253 Ry

     iteration # 29     ecut=    40.00 Ry     beta= 0.60
     Davidson diagonalization with overlap
     ethr =  1.22E-08,  avg # of iterations =  3.2

     total cpu time spent up to now is     3041.2 secs

     total energy              =    -941.96902694 Ry
     Harris-Foulkes estimate   =    -941.96902718 Ry
     estimated scf accuracy    <       0.00000116 Ry

     iteration # 30     ecut=    40.00 Ry     beta= 0.60
     Davidson diagonalization with overlap
     ethr =  1.13E-09,  avg # of iterations =  3.9

     total cpu time spent up to now is     3161.8 secs

     total energy              =    -941.96902720 Ry
     Harris-Foulkes estimate   =    -941.96902729 Ry
     estimated scf accuracy    <       0.00000079 Ry

     iteration # 31     ecut=    40.00 Ry     beta= 0.60
     Davidson diagonalization with overlap
     ethr =  7.71E-10,  avg # of iterations =  1.4

     total cpu time spent up to now is     3245.1 secs

     total energy              =    -941.96902717 Ry
     Harris-Foulkes estimate   =    -941.96902726 Ry
     estimated scf accuracy    <       0.00000059 Ry

     iteration # 32     ecut=    40.00 Ry     beta= 0.60
     Davidson diagonalization with overlap
     ethr =  5.69E-10,  avg # of iterations =  2.4

     total cpu time spent up to now is     3337.4 secs

     total energy              =    -941.96902720 Ry
     Harris-Foulkes estimate   =    -941.96902723 Ry
     estimated scf accuracy    <       0.00000014 Ry

     iteration # 33     ecut=    40.00 Ry     beta= 0.60
     Davidson diagonalization with overlap
     ethr =  1.32E-10,  avg # of iterations =  3.3

     total cpu time spent up to now is     3446.5 secs

     total energy              =    -941.96902722 Ry
     Harris-Foulkes estimate   =    -941.96902723 Ry
     estimated scf accuracy    <       0.00000009 Ry

     iteration # 34     ecut=    40.00 Ry     beta= 0.60
     Davidson diagonalization with overlap
     ethr =  9.03E-11,  avg # of iterations =  2.7

     total cpu time spent up to now is     3540.2 secs

     total energy              =    -941.96902722 Ry
     Harris-Foulkes estimate   =    -941.96902723 Ry
     estimated scf accuracy    <       0.00000003 Ry

     iteration # 35     ecut=    40.00 Ry     beta= 0.60
     Davidson diagonalization with overlap
     ethr =  2.52E-11,  avg # of iterations =  2.2

     total cpu time spent up to now is     3630.9 secs

     total energy              =    -941.96902723 Ry
     Harris-Foulkes estimate   =    -941.96902723 Ry
     estimated scf accuracy    <          5.9E-09 Ry

     iteration # 36     ecut=    40.00 Ry     beta= 0.60
     Davidson diagonalization with overlap
     ethr =  5.77E-12,  avg # of iterations =  3.1

     total cpu time spent up to now is     3731.8 secs

     total energy              =    -941.96902723 Ry
     Harris-Foulkes estimate   =    -941.96902723 Ry
     estimated scf accuracy    <          1.2E-09 Ry

     iteration # 37     ecut=    40.00 Ry     beta= 0.60
     Davidson diagonalization with overlap
     ethr =  1.18E-12,  avg # of iterations =  2.5

     total cpu time spent up to now is     3827.5 secs

     total energy              =    -941.96902723 Ry
     Harris-Foulkes estimate   =    -941.96902723 Ry
     estimated scf accuracy    <          5.4E-10 Ry

     iteration # 38     ecut=    40.00 Ry     beta= 0.60
     Davidson diagonalization with overlap
     ethr =  5.24E-13,  avg # of iterations =  3.9

     total cpu time spent up to now is     3946.4 secs

     total energy              =    -941.96902723 Ry
     Harris-Foulkes estimate   =    -941.96902723 Ry
     estimated scf accuracy    <          1.5E-09 Ry

     iteration # 39     ecut=    40.00 Ry     beta= 0.60
     Davidson diagonalization with overlap
     ethr =  5.24E-13,  avg # of iterations =  3.0

     total cpu time spent up to now is     4051.8 secs

     total energy              =    -941.96902723 Ry
     Harris-Foulkes estimate   =    -941.96902723 Ry
     estimated scf accuracy    <          1.7E-10 Ry

     iteration # 40     ecut=    40.00 Ry     beta= 0.60
     Davidson diagonalization with overlap
     ethr =  1.67E-13,  avg # of iterations =  2.0

     total cpu time spent up to now is     4138.4 secs

     End of self-consistent calculation

     Number of k-points >= 100: set verbosity='high' to print the bands.

     the Fermi energy is    15.6981 ev

!    total energy              =    -941.96902723 Ry
     Harris-Foulkes estimate   =    -941.96902723 Ry
     estimated scf accuracy    <          2.0E-11 Ry

     The total energy is the sum of the following terms:

     one-electron contribution =    -191.78367612 Ry
     hartree contribution      =     139.90228783 Ry
     xc contribution           =    -142.75529440 Ry
     ewald contribution        =    -747.33067032 Ry
     smearing contrib. (-TS)   =      -0.00167423 Ry

     convergence has been achieved in  40 iterations

     Forces acting on atoms (cartesian axes, Ry/au):

     atom    1 type  2   force =     0.00000483    0.00110445    0.00000226
     atom    2 type  1   force =     0.00220694    0.00096750   -0.00011569
     atom    3 type  1   force =    -0.00000134    0.00471177   -0.00000020
     atom    4 type  1   force =    -0.00154984   -0.00064953   -0.00599051
     atom    5 type  1   force =    -0.00202888   -0.00322602    0.00052390
     atom    6 type  1   force =    -0.00220796    0.00096737    0.00011509
     atom    7 type  1   force =     0.00202758   -0.00322598   -0.00052426
     atom    8 type  1   force =     0.00154866   -0.00064957    0.00598941

     Total force =     0.011919     Total SCF correction =     0.000012


     Computing stress (Cartesian axis) and pressure

          total   stress  (Ry/bohr**3)                   (kbar)     P= -108.22
  -0.00088693  -0.00000000   0.00000454       -130.47     -0.00      0.67
  -0.00000000  -0.00088631  -0.00000000         -0.00   -130.38     -0.00
   0.00000454  -0.00000000  -0.00043382          0.67     -0.00    -63.82


     BFGS Geometry Optimization

     number of scf cycles    =   1
     number of bfgs steps    =   0

     enthalpy new            =    -941.9690272260 Ry

     new trust radius        =       0.1455905209 bohr
     new conv_thr            =            1.0E-10 Ry

     new unit-cell volume =   1019.36339 a.u.^3 (   151.05407 Ang^3 )
     density =      7.67545 g/cm^3

CELL_PARAMETERS (alat=  1.88972599)
   1.488178957   2.578619667  -4.918359120
   1.488179149  -2.578619702  -4.918359079
  -5.954972440   0.000000221  -0.000690828

ATOMIC_POSITIONS (angstrom)
Ti      -0.000561559   0.000571538  -4.918530625
Nb      -1.487881722   0.860039747  -2.459499041
Nb      -2.978050970   0.002438264  -4.918877323
Nb      -4.467312215   0.859203121  -2.462919782
Nb      -2.979664134  -0.001669125  -9.837134920
Nb       1.486755996   0.860039602  -7.377564899
Nb      -0.000078986  -0.001669211  -9.837337907
Nb      -1.488786033   0.859203027  -7.374835247


     NEW-OLD atomic charge density approx. for the potential

     Check: negative/imaginary core charge=   -0.000001    0.000000
     extrapolated charge   97.15476, renormalised to  103.00000

     total cpu time spent up to now is     4182.4 secs

     Self-consistent Calculation

     iteration #  1     ecut=    40.00 Ry     beta= 0.60
     Davidson diagonalization with overlap
     c_bands:  1 eigenvalues not converged
     c_bands:  1 eigenvalues not converged
     c_bands:  1 eigenvalues not converged
     c_bands:  1 eigenvalues not converged
     c_bands:  1 eigenvalues not converged
     c_bands:  1 eigenvalues not converged
     c_bands:  1 eigenvalues not converged
     c_bands:  1 eigenvalues not converged
     c_bands:  1 eigenvalues not converged
     c_bands:  2 eigenvalues not converged
     c_bands:  2 eigenvalues not converged
     c_bands:  1 eigenvalues not converged
     c_bands:  2 eigenvalues not converged
     c_bands:  1 eigenvalues not converged
     c_bands:  1 eigenvalues not converged
     c_bands:  1 eigenvalues not converged
     c_bands:  1 eigenvalues not converged
     c_bands:  2 eigenvalues not converged
     c_bands:  1 eigenvalues not converged
     c_bands:  1 eigenvalues not converged
     c_bands:  1 eigenvalues not converged
     c_bands:  1 eigenvalues not converged
     c_bands:  2 eigenvalues not converged
     c_bands:  2 eigenvalues not converged
     c_bands:  1 eigenvalues not converged
     c_bands:  1 eigenvalues not converged
     c_bands:  1 eigenvalues not converged
     c_bands:  2 eigenvalues not converged
     c_bands:  1 eigenvalues not converged
     c_bands:  1 eigenvalues not converged
     c_bands:  1 eigenvalues not converged
     c_bands:  2 eigenvalues not converged
     c_bands:  2 eigenvalues not converged
     c_bands:  2 eigenvalues not converged
     c_bands:  1 eigenvalues not converged
     c_bands:  1 eigenvalues not converged
     c_bands:  1 eigenvalues not converged
     c_bands:  1 eigenvalues not converged
     c_bands:  1 eigenvalues not converged
     c_bands:  1 eigenvalues not converged
     c_bands:  2 eigenvalues not converged
     c_bands:  1 eigenvalues not converged
     c_bands:  2 eigenvalues not converged
     c_bands:  1 eigenvalues not converged
     c_bands:  1 eigenvalues not converged
     c_bands:  1 eigenvalues not converged
     c_bands:  1 eigenvalues not converged
     c_bands:  1 eigenvalues not converged
     c_bands:  1 eigenvalues not converged
     c_bands:  1 eigenvalues not converged
     c_bands:  1 eigenvalues not converged
     c_bands:  1 eigenvalues not converged
     c_bands:  1 eigenvalues not converged
     c_bands:  1 eigenvalues not converged
     c_bands:  1 eigenvalues not converged
     c_bands:  1 eigenvalues not converged
     c_bands:  2 eigenvalues not converged
     c_bands:  1 eigenvalues not converged
     c_bands:  1 eigenvalues not converged
     c_bands:  1 eigenvalues not converged
     c_bands:  1 eigenvalues not converged
     c_bands:  1 eigenvalues not converged
     c_bands:  1 eigenvalues not converged
     c_bands:  1 eigenvalues not converged
     c_bands:  1 eigenvalues not converged
     c_bands:  1 eigenvalues not converged
     c_bands:  1 eigenvalues not converged
     c_bands:  1 eigenvalues not converged
     c_bands:  1 eigenvalues not converged
     c_bands:  1 eigenvalues not converged
     c_bands:  1 eigenvalues not converged
     c_bands:  1 eigenvalues not converged
     c_bands:  1 eigenvalues not converged
     c_bands:  1 eigenvalues not converged
     c_bands:  2 eigenvalues not converged
     c_bands:  2 eigenvalues not converged
     c_bands:  1 eigenvalues not converged
     c_bands:  2 eigenvalues not converged
     c_bands:  1 eigenvalues not converged
     c_bands:  1 eigenvalues not converged
     c_bands:  1 eigenvalues not converged
     c_bands:  1 eigenvalues not converged
     c_bands:  2 eigenvalues not converged
     c_bands:  1 eigenvalues not converged
     c_bands:  2 eigenvalues not converged
     c_bands:  2 eigenvalues not converged
     c_bands:  1 eigenvalues not converged
     c_bands:  1 eigenvalues not converged
     c_bands:  1 eigenvalues not converged
     c_bands:  2 eigenvalues not converged
     c_bands:  1 eigenvalues not converged
     c_bands:  1 eigenvalues not converged
     c_bands:  1 eigenvalues not converged
     c_bands:  2 eigenvalues not converged
     c_bands:  2 eigenvalues not converged
     c_bands:  2 eigenvalues not converged
     c_bands:  1 eigenvalues not converged
     c_bands:  1 eigenvalues not converged
     c_bands:  1 eigenvalues not converged
     c_bands:  1 eigenvalues not converged
     c_bands:  1 eigenvalues not converged
     c_bands:  1 eigenvalues not converged
     c_bands:  2 eigenvalues not converged
     c_bands:  1 eigenvalues not converged
     c_bands:  2 eigenvalues not converged
     c_bands:  1 eigenvalues not converged
     c_bands:  1 eigenvalues not converged
     c_bands:  1 eigenvalues not converged
     c_bands:  1 eigenvalues not converged
     c_bands:  1 eigenvalues not converged
     c_bands:  1 eigenvalues not converged
     c_bands:  1 eigenvalues not converged
     c_bands:  1 eigenvalues not converged
     c_bands:  1 eigenvalues not converged
     c_bands:  1 eigenvalues not converged
     c_bands:  1 eigenvalues not converged
     c_bands:  2 eigenvalues not converged
     c_bands:  1 eigenvalues not converged
     c_bands:  1 eigenvalues not converged
     c_bands:  1 eigenvalues not converged
     c_bands:  1 eigenvalues not converged
     c_bands:  1 eigenvalues not converged
     c_bands:  1 eigenvalues not converged
     c_bands:  1 eigenvalues not converged
     c_bands:  1 eigenvalues not converged
     ethr =  1.00E-06,  avg # of iterations = 15.1

     total cpu time spent up to now is     4528.1 secs

     total energy              =    -937.94198622 Ry
     Harris-Foulkes estimate   =    -948.98736751 Ry
     estimated scf accuracy    <       4.26733291 Ry

     iteration #  2     ecut=    40.00 Ry     beta= 0.60
     Davidson diagonalization with overlap
     ethr =  4.14E-03,  avg # of iterations =  5.3

     total cpu time spent up to now is     4687.9 secs

     total energy              =    -942.05598280 Ry
     Harris-Foulkes estimate   =    -947.02864200 Ry
     estimated scf accuracy    <      14.06971954 Ry

     iteration #  3     ecut=    40.00 Ry     beta= 0.60
     Davidson diagonalization with overlap
     ethr =  4.14E-03,  avg # of iterations =  2.9

     total cpu time spent up to now is     4792.7 secs

     total energy              =    -942.34149068 Ry
     Harris-Foulkes estimate   =    -943.13782399 Ry
     estimated scf accuracy    <       4.72041369 Ry

     iteration #  4     ecut=    40.00 Ry     beta= 0.60
     Davidson diagonalization with overlap
     ethr =  4.14E-03,  avg # of iterations =  1.2

     total cpu time spent up to now is     4873.7 secs

     total energy              =    -942.02133559 Ry
     Harris-Foulkes estimate   =    -942.64830109 Ry
     estimated scf accuracy    <       3.21010787 Ry

     iteration #  5     ecut=    40.00 Ry     beta= 0.60
     Davidson diagonalization with overlap
     ethr =  3.12E-03,  avg # of iterations =  1.7

     total cpu time spent up to now is     4957.7 secs

     total energy              =    -941.92717850 Ry
     Harris-Foulkes estimate   =    -942.13403143 Ry
     estimated scf accuracy    <       1.56897578 Ry

     iteration #  6     ecut=    40.00 Ry     beta= 0.60
     Davidson diagonalization with overlap
     ethr =  1.52E-03,  avg # of iterations =  3.9

     total cpu time spent up to now is     5059.3 secs

     total energy              =    -942.01666516 Ry
     Harris-Foulkes estimate   =    -942.04381498 Ry
     estimated scf accuracy    <       0.36670724 Ry

     iteration #  7     ecut=    40.00 Ry     beta= 0.60
     Davidson diagonalization with overlap
     ethr =  3.56E-04,  avg # of iterations =  3.6

     total cpu time spent up to now is     5166.0 secs

     total energy              =    -942.04928209 Ry
     Harris-Foulkes estimate   =    -942.04514896 Ry
     estimated scf accuracy    <       0.22756240 Ry

     iteration #  8     ecut=    40.00 Ry     beta= 0.60
     Davidson diagonalization with overlap
     ethr =  2.21E-04,  avg # of iterations =  1.0

     total cpu time spent up to now is     5246.8 secs

     total energy              =    -942.03755568 Ry
     Harris-Foulkes estimate   =    -942.05272825 Ry
     estimated scf accuracy    <       0.32196532 Ry

     iteration #  9     ecut=    40.00 Ry     beta= 0.60
     Davidson diagonalization with overlap
     ethr =  2.21E-04,  avg # of iterations =  1.0

     total cpu time spent up to now is     5326.6 secs

     total energy              =    -941.96222743 Ry
     Harris-Foulkes estimate   =    -942.03888327 Ry
     estimated scf accuracy    <       0.27221298 Ry

     iteration # 10     ecut=    40.00 Ry     beta= 0.60
     Davidson diagonalization with overlap
     ethr =  2.21E-04,  avg # of iterations =  5.3

     total cpu time spent up to now is     5456.1 secs

     total energy              =    -942.01778368 Ry
     Harris-Foulkes estimate   =    -942.01036769 Ry
     estimated scf accuracy    <       0.13682901 Ry

     iteration # 11     ecut=    40.00 Ry     beta= 0.60
     Davidson diagonalization with overlap
     ethr =  1.33E-04,  avg # of iterations =  1.0

     total cpu time spent up to now is     5536.9 secs

     total energy              =    -941.98588749 Ry
     Harris-Foulkes estimate   =    -942.02008356 Ry
     estimated scf accuracy    <       0.27781597 Ry

     iteration # 12     ecut=    40.00 Ry     beta= 0.60
     Davidson diagonalization with overlap
     ethr =  1.33E-04,  avg # of iterations =  1.4

     total cpu time spent up to now is     5620.4 secs

     total energy              =    -942.00030366 Ry
     Harris-Foulkes estimate   =    -942.00103073 Ry
     estimated scf accuracy    <       0.00274242 Ry

     iteration # 13     ecut=    40.00 Ry     beta= 0.60
     Davidson diagonalization with overlap
     ethr =  2.66E-06,  avg # of iterations =  5.6

     total cpu time spent up to now is     5787.1 secs

     total energy              =    -942.00295497 Ry
     Harris-Foulkes estimate   =    -942.00316796 Ry
     estimated scf accuracy    <       0.00895666 Ry

     iteration # 14     ecut=    40.00 Ry     beta= 0.60
     Davidson diagonalization with overlap
     ethr =  2.66E-06,  avg # of iterations =  1.0

     total cpu time spent up to now is     5867.5 secs

     total energy              =    -942.00272058 Ry
     Harris-Foulkes estimate   =    -942.00296804 Ry
     estimated scf accuracy    <       0.00704768 Ry

     iteration # 15     ecut=    40.00 Ry     beta= 0.60
     Davidson diagonalization with overlap
     ethr =  2.66E-06,  avg # of iterations =  1.0

     total cpu time spent up to now is     5948.4 secs

     total energy              =    -942.00199752 Ry
     Harris-Foulkes estimate   =    -942.00275465 Ry
     estimated scf accuracy    <       0.00405759 Ry

     iteration # 16     ecut=    40.00 Ry     beta= 0.60
     Davidson diagonalization with overlap
     ethr =  2.66E-06,  avg # of iterations =  5.6

     total cpu time spent up to now is     6079.1 secs

     total energy              =    -942.00255654 Ry
     Harris-Foulkes estimate   =    -942.00265880 Ry
     estimated scf accuracy    <       0.00168354 Ry

     iteration # 17     ecut=    40.00 Ry     beta= 0.60
     Davidson diagonalization with overlap
     ethr =  1.63E-06,  avg # of iterations =  1.0

     total cpu time spent up to now is     6159.8 secs

     total energy              =    -942.00252326 Ry
     Harris-Foulkes estimate   =    -942.00257645 Ry
     estimated scf accuracy    <       0.00075043 Ry

     iteration # 18     ecut=    40.00 Ry     beta= 0.60
     Davidson diagonalization with overlap
     ethr =  7.29E-07,  avg # of iterations =  2.3

     total cpu time spent up to now is     6248.2 secs

     total energy              =    -942.00255348 Ry
     Harris-Foulkes estimate   =    -942.00254991 Ry
     estimated scf accuracy    <       0.00009394 Ry

     iteration # 19     ecut=    40.00 Ry     beta= 0.60
     Davidson diagonalization with overlap
     ethr =  9.12E-08,  avg # of iterations =  2.1

     total cpu time spent up to now is     6337.5 secs

     total energy              =    -942.00255374 Ry
     Harris-Foulkes estimate   =    -942.00255706 Ry
     estimated scf accuracy    <       0.00014781 Ry

     iteration # 20     ecut=    40.00 Ry     beta= 0.60
     Davidson diagonalization with overlap
     ethr =  9.12E-08,  avg # of iterations =  1.0

     total cpu time spent up to now is     6418.7 secs

     total energy              =    -942.00254201 Ry
     Harris-Foulkes estimate   =    -942.00255455 Ry
     estimated scf accuracy    <       0.00012292 Ry

     iteration # 21     ecut=    40.00 Ry     beta= 0.60
     Davidson diagonalization with overlap
     ethr =  9.12E-08,  avg # of iterations =  1.6

     total cpu time spent up to now is     6503.1 secs

     total energy              =    -942.00254449 Ry
     Harris-Foulkes estimate   =    -942.00254608 Ry
     estimated scf accuracy    <       0.00001976 Ry

     iteration # 22     ecut=    40.00 Ry     beta= 0.60
     Davidson diagonalization with overlap
     ethr =  1.92E-08,  avg # of iterations =  4.0

     total cpu time spent up to now is     6614.6 secs

     total energy              =    -942.00254647 Ry
     Harris-Foulkes estimate   =    -942.00254670 Ry
     estimated scf accuracy    <       0.00000154 Ry

     iteration # 23     ecut=    40.00 Ry     beta= 0.60
     Davidson diagonalization with overlap
     ethr =  1.50E-09,  avg # of iterations =  2.9

     total cpu time spent up to now is     6710.2 secs

     total energy              =    -942.00254651 Ry
     Harris-Foulkes estimate   =    -942.00254661 Ry
     estimated scf accuracy    <       0.00000050 Ry

     iteration # 24     ecut=    40.00 Ry     beta= 0.60
     Davidson diagonalization with overlap
     ethr =  4.87E-10,  avg # of iterations =  3.0

     total cpu time spent up to now is     6814.4 secs

     total energy              =    -942.00254651 Ry
     Harris-Foulkes estimate   =    -942.00254660 Ry
     estimated scf accuracy    <       0.00000048 Ry

     iteration # 25     ecut=    40.00 Ry     beta= 0.60
     Davidson diagonalization with overlap
     ethr =  4.62E-10,  avg # of iterations =  3.0

     total cpu time spent up to now is     6912.0 secs

     total energy              =    -942.00254655 Ry
     Harris-Foulkes estimate   =    -942.00254657 Ry
     estimated scf accuracy    <       0.00000011 Ry

     iteration # 26     ecut=    40.00 Ry     beta= 0.60
     Davidson diagonalization with overlap
     ethr =  1.07E-10,  avg # of iterations =  3.0

     total cpu time spent up to now is     7013.9 secs

     total energy              =    -942.00254656 Ry
     Harris-Foulkes estimate   =    -942.00254657 Ry
     estimated scf accuracy    <       0.00000005 Ry

     iteration # 27     ecut=    40.00 Ry     beta= 0.60
     Davidson diagonalization with overlap
     ethr =  5.25E-11,  avg # of iterations =  2.5

     total cpu time spent up to now is     7107.4 secs

     total energy              =    -942.00254656 Ry
     Harris-Foulkes estimate   =    -942.00254656 Ry
     estimated scf accuracy    <          5.4E-09 Ry

     iteration # 28     ecut=    40.00 Ry     beta= 0.60
     Davidson diagonalization with overlap
     ethr =  5.21E-12,  avg # of iterations =  3.2

     total cpu time spent up to now is     7217.6 secs

     total energy              =    -942.00254656 Ry
     Harris-Foulkes estimate   =    -942.00254656 Ry
     estimated scf accuracy    <          3.6E-09 Ry

     iteration # 29     ecut=    40.00 Ry     beta= 0.60
     Davidson diagonalization with overlap
     ethr =  3.54E-12,  avg # of iterations =  1.2

     total cpu time spent up to now is     7298.5 secs

     total energy              =    -942.00254656 Ry
     Harris-Foulkes estimate   =    -942.00254656 Ry
     estimated scf accuracy    <          5.9E-10 Ry

     iteration # 30     ecut=    40.00 Ry     beta= 0.60
     Davidson diagonalization with overlap
     ethr =  5.73E-13,  avg # of iterations =  3.1

     total cpu time spent up to now is     7403.0 secs

     total energy              =    -942.00254656 Ry
     Harris-Foulkes estimate   =    -942.00254656 Ry
     estimated scf accuracy    <          1.2E-10 Ry

     iteration # 31     ecut=    40.00 Ry     beta= 0.60
     Davidson diagonalization with overlap
     ethr =  1.17E-13,  avg # of iterations =  3.4

     total cpu time spent up to now is     7511.0 secs

     End of self-consistent calculation

     Number of k-points >= 100: set verbosity='high' to print the bands.

     the Fermi energy is    16.7483 ev

!    total energy              =    -942.00254656 Ry
     Harris-Foulkes estimate   =    -942.00254656 Ry
     estimated scf accuracy    <          8.3E-11 Ry

     The total energy is the sum of the following terms:

     one-electron contribution =    -171.75315235 Ry
     hartree contribution      =     134.29441726 Ry
     xc contribution           =    -143.20285576 Ry
     ewald contribution        =    -761.34016373 Ry
     smearing contrib. (-TS)   =      -0.00079198 Ry

     convergence has been achieved in  31 iterations

     Forces acting on atoms (cartesian axes, Ry/au):

     atom    1 type  2   force =     0.00002143    0.00087989    0.00000680
     atom    2 type  1   force =     0.00312526    0.00183023    0.00014979
     atom    3 type  1   force =    -0.00000222    0.00350291   -0.00000040
     atom    4 type  1   force =    -0.00237257   -0.00153504   -0.00709882
     atom    5 type  1   force =    -0.00346375   -0.00248673   -0.00055148
     atom    6 type  1   force =    -0.00312930    0.00183040   -0.00015093
     atom    7 type  1   force =     0.00345750   -0.00248647    0.00054936
     atom    8 type  1   force =     0.00236362   -0.00153520    0.00709567

     Total force =     0.013890     Total SCF correction =     0.000020


     Computing stress (Cartesian axis) and pressure

          total   stress  (Ry/bohr**3)                   (kbar)     P=  -37.14
  -0.00041917  -0.00000000   0.00000629        -61.66     -0.00      0.92
  -0.00000000  -0.00042020   0.00000000         -0.00    -61.81      0.00
   0.00000629   0.00000000   0.00008198          0.92      0.00     12.06


     number of scf cycles    =   2
     number of bfgs steps    =   1

     enthalpy old            =    -941.9690272260 Ry
     enthalpy new            =    -942.0025465641 Ry

     CASE: enthalpy_new < enthalpy_old

     new trust radius        =       0.1249760087 bohr
     new conv_thr            =            1.0E-10 Ry

     new unit-cell volume =    981.90269 a.u.^3 (   145.50296 Ang^3 )
     density =      7.96828 g/cm^3

CELL_PARAMETERS (alat=  1.88972599)
   1.457800770   2.528151095  -4.928053980
   1.457801123  -2.528151497  -4.928054088
  -5.838659135   0.000000408  -0.002286243

ATOMIC_POSITIONS (angstrom)
Ti      -0.001843636   0.001339366  -4.928618476
Nb      -1.456803777   0.844753707  -2.464822136
Nb      -2.921195966   0.005509896  -4.929769177
Nb      -4.382736777   0.841098897  -2.475570878
Nb      -2.927024634  -0.003844481  -9.858561596
Nb       1.453075043   0.844753465  -7.392430338
Nb       0.000233898  -0.003844443  -9.857085920
Nb      -1.459655186   0.841098439  -7.383969842


     NEW-OLD atomic charge density approx. for the potential

     Check: negative/imaginary core charge=   -0.000001    0.000000
     extrapolated charge   99.10932, renormalised to  103.00000

     total cpu time spent up to now is     7554.8 secs

     Self-consistent Calculation

     iteration #  1     ecut=    40.00 Ry     beta= 0.60
     Davidson diagonalization with overlap
     ethr =  1.00E-06,  avg # of iterations = 11.5

     total cpu time spent up to now is     7888.9 secs

     total energy              =    -940.93654790 Ry
     Harris-Foulkes estimate   =    -946.29245773 Ry
     estimated scf accuracy    <       1.05538221 Ry

     iteration #  2     ecut=    40.00 Ry     beta= 0.60
     Davidson diagonalization with overlap
     ethr =  1.02E-03,  avg # of iterations =  6.3

     total cpu time spent up to now is     8076.9 secs

     total energy              =    -941.88231901 Ry
     Harris-Foulkes estimate   =    -943.58838696 Ry
     estimated scf accuracy    <       5.73047815 Ry

     iteration #  3     ecut=    40.00 Ry     beta= 0.60
     Davidson diagonalization with overlap
     ethr =  1.02E-03,  avg # of iterations =  4.1

     total cpu time spent up to now is     8207.3 secs

     total energy              =    -942.02610493 Ry
     Harris-Foulkes estimate   =    -942.28141547 Ry
     estimated scf accuracy    <       1.38287512 Ry

     iteration #  4     ecut=    40.00 Ry     beta= 0.60
     Davidson diagonalization with overlap
     ethr =  1.02E-03,  avg # of iterations =  2.3

     total cpu time spent up to now is     8297.0 secs

     total energy              =    -941.98768709 Ry
     Harris-Foulkes estimate   =    -942.14612432 Ry
     estimated scf accuracy    <       1.03021456 Ry

     iteration #  5     ecut=    40.00 Ry     beta= 0.60
     Davidson diagonalization with overlap
     ethr =  1.00E-03,  avg # of iterations =  2.0

     total cpu time spent up to now is     8383.5 secs

     total energy              =    -942.00633890 Ry
     Harris-Foulkes estimate   =    -942.03626412 Ry
     estimated scf accuracy    <       0.25700551 Ry

     iteration #  6     ecut=    40.00 Ry     beta= 0.60
     Davidson diagonalization with overlap
     ethr =  2.50E-04,  avg # of iterations =  4.5

     total cpu time spent up to now is     8492.4 secs

     total energy              =    -942.02015762 Ry
     Harris-Foulkes estimate   =    -942.02776389 Ry
     estimated scf accuracy    <       0.06866032 Ry

     iteration #  7     ecut=    40.00 Ry     beta= 0.60
     Davidson diagonalization with overlap
     ethr =  6.67E-05,  avg # of iterations =  2.7

     total cpu time spent up to now is     8584.7 secs

     total energy              =    -942.02253867 Ry
     Harris-Foulkes estimate   =    -942.02388787 Ry
     estimated scf accuracy    <       0.05246112 Ry

     iteration #  8     ecut=    40.00 Ry     beta= 0.60
     Davidson diagonalization with overlap
     ethr =  5.09E-05,  avg # of iterations =  1.0

     total cpu time spent up to now is     8664.6 secs

     total energy              =    -942.01832306 Ry
     Harris-Foulkes estimate   =    -942.02320340 Ry
     estimated scf accuracy    <       0.05947656 Ry

     iteration #  9     ecut=    40.00 Ry     beta= 0.60
     Davidson diagonalization with overlap
     ethr =  5.09E-05,  avg # of iterations =  1.0

     total cpu time spent up to now is     8744.9 secs

     total energy              =    -942.00583544 Ry
     Harris-Foulkes estimate   =    -942.01879404 Ry
     estimated scf accuracy    <       0.04438685 Ry

     iteration # 10     ecut=    40.00 Ry     beta= 0.60
     Davidson diagonalization with overlap
     ethr =  4.31E-05,  avg # of iterations =  5.3

     total cpu time spent up to now is     8872.8 secs

     total energy              =    -942.01274375 Ry
     Harris-Foulkes estimate   =    -942.01326185 Ry
     estimated scf accuracy    <       0.01000045 Ry

     iteration # 11     ecut=    40.00 Ry     beta= 0.60
     Davidson diagonalization with overlap
     c_bands:  1 eigenvalues not converged
     c_bands:  1 eigenvalues not converged
     c_bands:  1 eigenvalues not converged
     c_bands:  1 eigenvalues not converged
     c_bands:  1 eigenvalues not converged
     c_bands:  1 eigenvalues not converged
     ethr =  9.71E-06,  avg # of iterations =  3.9

     total cpu time spent up to now is     8970.7 secs

     total energy              =    -942.01216723 Ry
     Harris-Foulkes estimate   =    -942.01294019 Ry
     estimated scf accuracy    <       0.00484569 Ry

     iteration # 12     ecut=    40.00 Ry     beta= 0.60
     Davidson diagonalization with overlap
     ethr =  4.70E-06,  avg # of iterations =  4.4

     total cpu time spent up to now is     9078.9 secs

     total energy              =    -942.01264022 Ry
     Harris-Foulkes estimate   =    -942.01266369 Ry
     estimated scf accuracy    <       0.00019144 Ry

     iteration # 13     ecut=    40.00 Ry     beta= 0.60
     Davidson diagonalization with overlap
     ethr =  1.86E-07,  avg # of iterations =  3.6

     total cpu time spent up to now is     9189.1 secs

     total energy              =    -942.01266218 Ry
     Harris-Foulkes estimate   =    -942.01266449 Ry
     estimated scf accuracy    <       0.00003215 Ry

     iteration # 14     ecut=    40.00 Ry     beta= 0.60
     Davidson diagonalization with overlap
     ethr =  3.12E-08,  avg # of iterations =  2.9

     total cpu time spent up to now is     9287.3 secs

     total energy              =    -942.01266259 Ry
     Harris-Foulkes estimate   =    -942.01266446 Ry
     estimated scf accuracy    <       0.00001446 Ry

     iteration # 15     ecut=    40.00 Ry     beta= 0.60
     Davidson diagonalization with overlap
     ethr =  1.40E-08,  avg # of iterations =  2.7

     total cpu time spent up to now is     9382.3 secs

     total energy              =    -942.01266338 Ry
     Harris-Foulkes estimate   =    -942.01266360 Ry
     estimated scf accuracy    <       0.00000082 Ry

     iteration # 16     ecut=    40.00 Ry     beta= 0.60
     Davidson diagonalization with overlap
     ethr =  7.99E-10,  avg # of iterations =  4.7

     total cpu time spent up to now is     9520.2 secs

     total energy              =    -942.01266371 Ry
     Harris-Foulkes estimate   =    -942.01266391 Ry
     estimated scf accuracy    <       0.00000206 Ry

     iteration # 17     ecut=    40.00 Ry     beta= 0.60
     Davidson diagonalization with overlap
     ethr =  7.99E-10,  avg # of iterations =  2.3

     total cpu time spent up to now is     9610.2 secs

     total energy              =    -942.01266369 Ry
     Harris-Foulkes estimate   =    -942.01266379 Ry
     estimated scf accuracy    <       0.00000072 Ry

     iteration # 18     ecut=    40.00 Ry     beta= 0.60
     Davidson diagonalization with overlap
     ethr =  6.99E-10,  avg # of iterations =  3.0

     total cpu time spent up to now is     9708.6 secs

     total energy              =    -942.01266374 Ry
     Harris-Foulkes estimate   =    -942.01266375 Ry
     estimated scf accuracy    <       0.00000009 Ry

     iteration # 19     ecut=    40.00 Ry     beta= 0.60
     Davidson diagonalization with overlap
     ethr =  8.48E-11,  avg # of iterations =  3.7

     total cpu time spent up to now is     9822.1 secs

     total energy              =    -942.01266375 Ry
     Harris-Foulkes estimate   =    -942.01266375 Ry
     estimated scf accuracy    <       0.00000005 Ry

     iteration # 20     ecut=    40.00 Ry     beta= 0.60
     Davidson diagonalization with overlap
     ethr =  4.93E-11,  avg # of iterations =  1.0

     total cpu time spent up to now is     9904.0 secs

     total energy              =    -942.01266375 Ry
     Harris-Foulkes estimate   =    -942.01266375 Ry
     estimated scf accuracy    <       0.00000003 Ry

     iteration # 21     ecut=    40.00 Ry     beta= 0.60
     Davidson diagonalization with overlap
     ethr =  2.79E-11,  avg # of iterations =  1.5

     total cpu time spent up to now is     9986.9 secs

     total energy              =    -942.01266375 Ry
     Harris-Foulkes estimate   =    -942.01266375 Ry
     estimated scf accuracy    <       0.00000001 Ry

     iteration # 22     ecut=    40.00 Ry     beta= 0.60
     Davidson diagonalization with overlap
     ethr =  1.07E-11,  avg # of iterations =  3.5

     total cpu time spent up to now is    10090.4 secs

     total energy              =    -942.01266375 Ry
     Harris-Foulkes estimate   =    -942.01266375 Ry
     estimated scf accuracy    <          5.1E-10 Ry

     iteration # 23     ecut=    40.00 Ry     beta= 0.60
     Davidson diagonalization with overlap
     ethr =  4.93E-13,  avg # of iterations =  3.7

     total cpu time spent up to now is    10210.4 secs

     total energy              =    -942.01266375 Ry
     Harris-Foulkes estimate   =    -942.01266375 Ry
     estimated scf accuracy    <          5.3E-10 Ry

     iteration # 24     ecut=    40.00 Ry     beta= 0.60
     Davidson diagonalization with overlap
     ethr =  4.93E-13,  avg # of iterations =  3.0

     total cpu time spent up to now is    10316.0 secs

     total energy              =    -942.01266375 Ry
     Harris-Foulkes estimate   =    -942.01266375 Ry
     estimated scf accuracy    <          4.6E-10 Ry

     iteration # 25     ecut=    40.00 Ry     beta= 0.60
     Davidson diagonalization with overlap
     ethr =  4.47E-13,  avg # of iterations =  2.2

     total cpu time spent up to now is    10405.5 secs

     End of self-consistent calculation

     Number of k-points >= 100: set verbosity='high' to print the bands.

     the Fermi energy is    17.4754 ev

!    total energy              =    -942.01266375 Ry
     Harris-Foulkes estimate   =    -942.01266375 Ry
     estimated scf accuracy    <          4.0E-11 Ry

     The total energy is the sum of the following terms:

     one-electron contribution =    -158.34704756 Ry
     hartree contribution      =     130.66663016 Ry
     xc contribution           =    -143.52518172 Ry
     ewald contribution        =    -770.80663179 Ry
     smearing contrib. (-TS)   =      -0.00043284 Ry

     convergence has been achieved in  25 iterations

     Forces acting on atoms (cartesian axes, Ry/au):

     atom    1 type  2   force =     0.00001937    0.00048384    0.00000503
     atom    2 type  1   force =     0.00277481    0.00229517    0.00089813
     atom    3 type  1   force =     0.00000139    0.00036343   -0.00000123
     atom    4 type  1   force =    -0.00198544   -0.00202274   -0.00613921
     atom    5 type  1   force =    -0.00387851   -0.00069560   -0.00173518
     atom    6 type  1   force =    -0.00278296    0.00229498   -0.00089901
     atom    7 type  1   force =     0.00387318   -0.00069566    0.00173280
     atom    8 type  1   force =     0.00197816   -0.00202342    0.00613867

     Total force =     0.012506     Total SCF correction =     0.000017


     Computing stress (Cartesian axis) and pressure

          total   stress  (Ry/bohr**3)                   (kbar)     P=   19.17
  -0.00003213   0.00000000   0.00000823         -4.73      0.00      1.21
   0.00000000  -0.00003741   0.00000000          0.00     -5.50      0.00
   0.00000823   0.00000000   0.00046038          1.21      0.00     67.72


     number of scf cycles    =   3
     number of bfgs steps    =   2

     enthalpy old            =    -942.0025465641 Ry
     enthalpy new            =    -942.0126637482 Ry

     CASE: enthalpy_new < enthalpy_old

     new trust radius        =       0.0733364572 bohr
     new conv_thr            =            1.0E-10 Ry

     new unit-cell volume =    975.82050 a.u.^3 (   144.60168 Ang^3 )
     density =      8.01794 g/cm^3

CELL_PARAMETERS (alat=  1.88972599)
   1.443451850   2.505491695  -4.985244151
   1.443451632  -2.505491856  -4.985244305
  -5.787273778  -0.000000252  -0.004141913

ATOMIC_POSITIONS (angstrom)
Ti      -0.003330983   0.001863939  -4.986267718
Nb      -1.442367535   0.838926828  -2.493530678
Nb      -2.897005895   0.006735577  -4.988351995
Nb      -4.346656879   0.832053349  -2.511716771
Nb      -2.907358249  -0.004954604  -9.975953568
Nb       1.435627752   0.838926790  -7.479030862
Nb       0.000244391  -0.004954219  -9.971240215
Nb      -1.447361255   0.832052764  -7.464988972


     NEW-OLD atomic charge density approx. for the potential

     Check: negative/imaginary core charge=   -0.000001    0.000000
     extrapolated charge  102.36436, renormalised to  103.00000

     total cpu time spent up to now is    10449.7 secs

     Self-consistent Calculation

     iteration #  1     ecut=    40.00 Ry     beta= 0.60
     Davidson diagonalization with overlap
     c_bands:  1 eigenvalues not converged
     c_bands:  1 eigenvalues not converged
     c_bands:  1 eigenvalues not converged
     c_bands:  1 eigenvalues not converged
     c_bands:  1 eigenvalues not converged
     c_bands:  1 eigenvalues not converged
     c_bands:  1 eigenvalues not converged
     c_bands:  1 eigenvalues not converged
     c_bands:  1 eigenvalues not converged
     c_bands:  1 eigenvalues not converged
     c_bands:  1 eigenvalues not converged
     ethr =  1.00E-06,  avg # of iterations = 10.8

     total cpu time spent up to now is    10718.0 secs

     total energy              =    -941.99859732 Ry
     Harris-Foulkes estimate   =    -942.70069180 Ry
     estimated scf accuracy    <       0.01850540 Ry

     iteration #  2     ecut=    40.00 Ry     beta= 0.60
     Davidson diagonalization with overlap
     c_bands:  1 eigenvalues not converged
     c_bands:  1 eigenvalues not converged
     c_bands:  1 eigenvalues not converged
     c_bands:  2 eigenvalues not converged
     c_bands:  1 eigenvalues not converged
     c_bands:  1 eigenvalues not converged
     c_bands:  1 eigenvalues not converged
     c_bands:  1 eigenvalues not converged
     c_bands:  1 eigenvalues not converged
     ethr =  1.80E-05,  avg # of iterations =  8.2

     total cpu time spent up to now is    10912.1 secs

     total energy              =    -941.98958883 Ry
     Harris-Foulkes estimate   =    -942.06280139 Ry
     estimated scf accuracy    <       0.46419555 Ry

     iteration #  3     ecut=    40.00 Ry     beta= 0.60
     Davidson diagonalization with overlap
     ethr =  1.80E-05,  avg # of iterations =  5.0

     total cpu time spent up to now is    11068.9 secs

     total energy              =    -942.01717123 Ry
     Harris-Foulkes estimate   =    -942.02127549 Ry
     estimated scf accuracy    <       0.01133114 Ry

     iteration #  4     ecut=    40.00 Ry     beta= 0.60
     Davidson diagonalization with overlap
     ethr =  1.10E-05,  avg # of iterations =  3.2

     total cpu time spent up to now is    11174.5 secs

     total energy              =    -942.01772089 Ry
     Harris-Foulkes estimate   =    -942.01984564 Ry
     estimated scf accuracy    <       0.01468090 Ry

     iteration #  5     ecut=    40.00 Ry     beta= 0.60
     Davidson diagonalization with overlap
     ethr =  1.10E-05,  avg # of iterations =  1.4

     total cpu time spent up to now is    11256.0 secs

     total energy              =    -942.01813294 Ry
     Harris-Foulkes estimate   =    -942.01857409 Ry
     estimated scf accuracy    <       0.00393965 Ry

     iteration #  6     ecut=    40.00 Ry     beta= 0.60
     Davidson diagonalization with overlap
     ethr =  3.82E-06,  avg # of iterations =  2.6

     total cpu time spent up to now is    11346.7 secs

     total energy              =    -942.01793087 Ry
     Harris-Foulkes estimate   =    -942.01833155 Ry
     estimated scf accuracy    <       0.00212957 Ry

     iteration #  7     ecut=    40.00 Ry     beta= 0.60
     Davidson diagonalization with overlap
     ethr =  2.07E-06,  avg # of iterations =  2.7

     total cpu time spent up to now is    11436.4 secs

     total energy              =    -942.01797913 Ry
     Harris-Foulkes estimate   =    -942.01807382 Ry
     estimated scf accuracy    <       0.00042958 Ry

     iteration #  8     ecut=    40.00 Ry     beta= 0.60
     Davidson diagonalization with overlap
     ethr =  4.17E-07,  avg # of iterations =  4.2

     total cpu time spent up to now is    11551.1 secs

     total energy              =    -942.01803216 Ry
     Harris-Foulkes estimate   =    -942.01805624 Ry
     estimated scf accuracy    <       0.00017887 Ry

     iteration #  9     ecut=    40.00 Ry     beta= 0.60
     Davidson diagonalization with overlap
     ethr =  1.74E-07,  avg # of iterations =  1.1

     total cpu time spent up to now is    11630.6 secs

     total energy              =    -942.01803109 Ry
     Harris-Foulkes estimate   =    -942.01804021 Ry
     estimated scf accuracy    <       0.00005394 Ry

     iteration # 10     ecut=    40.00 Ry     beta= 0.60
     Davidson diagonalization with overlap
     ethr =  5.24E-08,  avg # of iterations =  3.0

     total cpu time spent up to now is    11732.0 secs

     total energy              =    -942.01803648 Ry
     Harris-Foulkes estimate   =    -942.01803885 Ry
     estimated scf accuracy    <       0.00000905 Ry

     iteration # 11     ecut=    40.00 Ry     beta= 0.60
     Davidson diagonalization with overlap
     ethr =  8.79E-09,  avg # of iterations =  3.0

     total cpu time spent up to now is    11831.2 secs

     total energy              =    -942.01803755 Ry
     Harris-Foulkes estimate   =    -942.01803760 Ry
     estimated scf accuracy    <       0.00000021 Ry

     iteration # 12     ecut=    40.00 Ry     beta= 0.60
     Davidson diagonalization with overlap
     ethr =  2.01E-10,  avg # of iterations =  4.7

     total cpu time spent up to now is    11975.9 secs

     total energy              =    -942.01803764 Ry
     Harris-Foulkes estimate   =    -942.01803768 Ry
     estimated scf accuracy    <       0.00000016 Ry

     iteration # 13     ecut=    40.00 Ry     beta= 0.60
     Davidson diagonalization with overlap
     ethr =  1.57E-10,  avg # of iterations =  3.0

     total cpu time spent up to now is    12079.5 secs

     total energy              =    -942.01803765 Ry
     Harris-Foulkes estimate   =    -942.01803768 Ry
     estimated scf accuracy    <       0.00000015 Ry

     iteration # 14     ecut=    40.00 Ry     beta= 0.60
     Davidson diagonalization with overlap
     ethr =  1.43E-10,  avg # of iterations =  1.2

     total cpu time spent up to now is    12162.7 secs

     total energy              =    -942.01803766 Ry
     Harris-Foulkes estimate   =    -942.01803766 Ry
     estimated scf accuracy    <       0.00000002 Ry

     iteration # 15     ecut=    40.00 Ry     beta= 0.60
     Davidson diagonalization with overlap
     ethr =  1.90E-11,  avg # of iterations =  3.8

     total cpu time spent up to now is    12279.4 secs

     total energy              =    -942.01803766 Ry
     Harris-Foulkes estimate   =    -942.01803767 Ry
     estimated scf accuracy    <       0.00000001 Ry

     iteration # 16     ecut=    40.00 Ry     beta= 0.60
     Davidson diagonalization with overlap
     ethr =  1.11E-11,  avg # of iterations =  2.1

     total cpu time spent up to now is    12367.3 secs

     total energy              =    -942.01803766 Ry
     Harris-Foulkes estimate   =    -942.01803766 Ry
     estimated scf accuracy    <          4.1E-09 Ry

     iteration # 17     ecut=    40.00 Ry     beta= 0.60
     Davidson diagonalization with overlap
     ethr =  3.93E-12,  avg # of iterations =  2.3

     total cpu time spent up to now is    12459.2 secs

     total energy              =    -942.01803766 Ry
     Harris-Foulkes estimate   =    -942.01803766 Ry
     estimated scf accuracy    <          1.6E-09 Ry

     iteration # 18     ecut=    40.00 Ry     beta= 0.60
     Davidson diagonalization with overlap
     ethr =  1.60E-12,  avg # of iterations =  3.2

     total cpu time spent up to now is    12563.7 secs

     total energy              =    -942.01803766 Ry
     Harris-Foulkes estimate   =    -942.01803766 Ry
     estimated scf accuracy    <          9.8E-10 Ry

     iteration # 19     ecut=    40.00 Ry     beta= 0.60
     Davidson diagonalization with overlap
     ethr =  9.53E-13,  avg # of iterations =  3.2

     total cpu time spent up to now is    12662.9 secs

     total energy              =    -942.01803766 Ry
     Harris-Foulkes estimate   =    -942.01803766 Ry
     estimated scf accuracy    <          5.2E-10 Ry

     iteration # 20     ecut=    40.00 Ry     beta= 0.60
     Davidson diagonalization with overlap
     ethr =  5.02E-13,  avg # of iterations =  1.1

     total cpu time spent up to now is    12743.3 secs

     End of self-consistent calculation

     Number of k-points >= 100: set verbosity='high' to print the bands.

     the Fermi energy is    17.5874 ev

!    total energy              =    -942.01803766 Ry
     Harris-Foulkes estimate   =    -942.01803766 Ry
     estimated scf accuracy    <          4.3E-11 Ry

     The total energy is the sum of the following terms:

     one-electron contribution =    -156.47827233 Ry
     hartree contribution      =     130.25339855 Ry
     xc contribution           =    -143.58970900 Ry
     ewald contribution        =    -772.20303791 Ry
     smearing contrib. (-TS)   =      -0.00041697 Ry

     convergence has been achieved in  20 iterations

     Forces acting on atoms (cartesian axes, Ry/au):

     atom    1 type  2   force =     0.00001446    0.00059565    0.00000274
     atom    2 type  1   force =     0.00145074    0.00210706    0.00149006
     atom    3 type  1   force =     0.00000403   -0.00227404   -0.00000145
     atom    4 type  1   force =    -0.00070339   -0.00185594   -0.00429832
     atom    5 type  1   force =    -0.00341649    0.00058860   -0.00221106
     atom    6 type  1   force =    -0.00145981    0.00210674   -0.00149015
     atom    7 type  1   force =     0.00341351    0.00058881    0.00220894
     atom    8 type  1   force =     0.00069695   -0.00185687    0.00429924

     Total force =     0.010085     Total SCF correction =     0.000015


     Computing stress (Cartesian axis) and pressure

          total   stress  (Ry/bohr**3)                   (kbar)     P=   28.50
   0.00006104   0.00000001   0.00000960          8.98      0.00      1.41
   0.00000001   0.00005223  -0.00000000          0.00      7.68     -0.00
   0.00000960  -0.00000000   0.00046788          1.41     -0.00     68.83


     number of scf cycles    =   4
     number of bfgs steps    =   3

     enthalpy old            =    -942.0126637482 Ry
     enthalpy new            =    -942.0180376641 Ry

     CASE: enthalpy_new < enthalpy_old

     new trust radius        =       0.1083952810 bohr
     new conv_thr            =            1.0E-10 Ry

     new unit-cell volume =    976.40181 a.u.^3 (   144.68782 Ang^3 )
     density =      8.01317 g/cm^3

CELL_PARAMETERS (alat=  1.88972599)
   1.429458310   2.484338446  -5.071008900
   1.429456674  -2.484337485  -5.071008882
  -5.740473911  -0.000001889  -0.007000972

ATOMIC_POSITIONS (angstrom)
Ti      -0.005606930   0.002631305  -5.072741753
Nb      -1.429404977   0.834166107  -2.536176860
Nb      -2.875898095   0.006652119  -5.076262419
Nb      -4.314268060   0.823018870  -2.564362986
Nb      -2.892457850  -0.005605748 -10.152438177
Nb       1.418068742   0.834166822  -7.609344290
Nb      -0.000437725  -0.005604366 -10.142105578
Nb      -1.437545953   0.823018502  -7.588161221


     NEW-OLD atomic charge density approx. for the potential

     Check: negative/imaginary core charge=   -0.000001    0.000000
     extrapolated charge  103.06072, renormalised to  103.00000

     total cpu time spent up to now is    12787.1 secs

     Self-consistent Calculation

     iteration #  1     ecut=    40.00 Ry     beta= 0.60
     Davidson diagonalization with overlap
     c_bands:  2 eigenvalues not converged
     c_bands:  2 eigenvalues not converged
     c_bands:  1 eigenvalues not converged
     c_bands:  2 eigenvalues not converged
     c_bands:  1 eigenvalues not converged
     c_bands:  1 eigenvalues not converged
     c_bands:  1 eigenvalues not converged
     c_bands:  1 eigenvalues not converged
     c_bands:  1 eigenvalues not converged
     c_bands:  1 eigenvalues not converged
     c_bands:  1 eigenvalues not converged
     c_bands:  1 eigenvalues not converged
     c_bands:  1 eigenvalues not converged
     c_bands:  1 eigenvalues not converged
     c_bands:  1 eigenvalues not converged
     c_bands:  1 eigenvalues not converged
     c_bands:  1 eigenvalues not converged
     c_bands:  1 eigenvalues not converged
     c_bands:  1 eigenvalues not converged
     c_bands:  2 eigenvalues not converged
     c_bands:  1 eigenvalues not converged
     c_bands:  2 eigenvalues not converged
     c_bands:  1 eigenvalues not converged
     c_bands:  1 eigenvalues not converged
     c_bands:  1 eigenvalues not converged
     c_bands:  1 eigenvalues not converged
     c_bands:  1 eigenvalues not converged
     c_bands:  1 eigenvalues not converged
     c_bands:  1 eigenvalues not converged
     c_bands:  1 eigenvalues not converged
     c_bands:  1 eigenvalues not converged
     c_bands:  1 eigenvalues not converged
     c_bands:  1 eigenvalues not converged
     c_bands:  1 eigenvalues not converged
     ethr =  1.00E-06,  avg # of iterations = 10.2

     total cpu time spent up to now is    13039.0 secs

     total energy              =    -942.02324192 Ry
     Harris-Foulkes estimate   =    -941.95864121 Ry
     estimated scf accuracy    <       0.00154976 Ry

     iteration #  2     ecut=    40.00 Ry     beta= 0.60
     Davidson diagonalization with overlap
     ethr =  1.50E-06,  avg # of iterations =  5.1

     total cpu time spent up to now is    13189.8 secs

     total energy              =    -942.02121094 Ry
     Harris-Foulkes estimate   =    -942.02601965 Ry
     estimated scf accuracy    <       0.02992227 Ry

     iteration #  3     ecut=    40.00 Ry     beta= 0.60
     Davidson diagonalization with overlap
     ethr =  1.50E-06,  avg # of iterations =  5.0

     total cpu time spent up to now is    13340.6 secs

     total energy              =    -942.02360926 Ry
     Harris-Foulkes estimate   =    -942.02398725 Ry
     estimated scf accuracy    <       0.00175637 Ry

     iteration #  4     ecut=    40.00 Ry     beta= 0.60
     Davidson diagonalization with overlap
     ethr =  1.50E-06,  avg # of iterations =  4.8

     total cpu time spent up to now is    13465.5 secs

     total energy              =    -942.02356156 Ry
     Harris-Foulkes estimate   =    -942.02416352 Ry
     estimated scf accuracy    <       0.00362693 Ry

     iteration #  5     ecut=    40.00 Ry     beta= 0.60
     Davidson diagonalization with overlap
     ethr =  1.50E-06,  avg # of iterations =  3.3

     total cpu time spent up to now is    13568.3 secs

     total energy              =    -942.02383609 Ry
     Harris-Foulkes estimate   =    -942.02386128 Ry
     estimated scf accuracy    <       0.00006154 Ry

     iteration #  6     ecut=    40.00 Ry     beta= 0.60
     Davidson diagonalization with overlap
     ethr =  5.98E-08,  avg # of iterations =  4.0

     total cpu time spent up to now is    13690.5 secs

     total energy              =    -942.02384632 Ry
     Harris-Foulkes estimate   =    -942.02387771 Ry
     estimated scf accuracy    <       0.00016896 Ry

     iteration #  7     ecut=    40.00 Ry     beta= 0.60
     Davidson diagonalization with overlap
     ethr =  5.98E-08,  avg # of iterations =  3.0

     total cpu time spent up to now is    13796.8 secs

     total energy              =    -942.02386190 Ry
     Harris-Foulkes estimate   =    -942.02386252 Ry
     estimated scf accuracy    <       0.00000258 Ry

     iteration #  8     ecut=    40.00 Ry     beta= 0.60
     Davidson diagonalization with overlap
     ethr =  2.50E-09,  avg # of iterations =  3.0

     total cpu time spent up to now is    13900.5 secs

     total energy              =    -942.02386233 Ry
     Harris-Foulkes estimate   =    -942.02386243 Ry
     estimated scf accuracy    <       0.00000034 Ry

     iteration #  9     ecut=    40.00 Ry     beta= 0.60
     Davidson diagonalization with overlap
     ethr =  3.28E-10,  avg # of iterations =  4.0

     total cpu time spent up to now is    14024.2 secs

     total energy              =    -942.02386230 Ry
     Harris-Foulkes estimate   =    -942.02386258 Ry
     estimated scf accuracy    <       0.00000132 Ry

     iteration # 10     ecut=    40.00 Ry     beta= 0.60
     Davidson diagonalization with overlap
     ethr =  3.28E-10,  avg # of iterations =  3.6

     total cpu time spent up to now is    14141.0 secs

     total energy              =    -942.02386244 Ry
     Harris-Foulkes estimate   =    -942.02386244 Ry
     estimated scf accuracy    <       0.00000005 Ry

     iteration # 11     ecut=    40.00 Ry     beta= 0.60
     Davidson diagonalization with overlap
     ethr =  5.28E-11,  avg # of iterations =  2.2

     total cpu time spent up to now is    14230.3 secs

     total energy              =    -942.02386244 Ry
     Harris-Foulkes estimate   =    -942.02386244 Ry
     estimated scf accuracy    <       0.00000001 Ry

     iteration # 12     ecut=    40.00 Ry     beta= 0.60
     Davidson diagonalization with overlap
     ethr =  1.34E-11,  avg # of iterations =  3.5

     total cpu time spent up to now is    14339.5 secs

     total energy              =    -942.02386244 Ry
     Harris-Foulkes estimate   =    -942.02386244 Ry
     estimated scf accuracy    <          9.5E-09 Ry

     iteration # 13     ecut=    40.00 Ry     beta= 0.60
     Davidson diagonalization with overlap
     ethr =  9.21E-12,  avg # of iterations =  2.2

     total cpu time spent up to now is    14430.0 secs

     total energy              =    -942.02386244 Ry
     Harris-Foulkes estimate   =    -942.02386244 Ry
     estimated scf accuracy    <          2.5E-10 Ry

     iteration # 14     ecut=    40.00 Ry     beta= 0.60
     Davidson diagonalization with overlap
     ethr =  2.42E-13,  avg # of iterations =  4.1

     total cpu time spent up to now is    14555.3 secs

     total energy              =    -942.02386244 Ry
     Harris-Foulkes estimate   =    -942.02386244 Ry
     estimated scf accuracy    <          5.0E-10 Ry

     iteration # 15     ecut=    40.00 Ry     beta= 0.60
     Davidson diagonalization with overlap
     ethr =  2.42E-13,  avg # of iterations =  3.3

     total cpu time spent up to now is    14661.7 secs

     total energy              =    -942.02386244 Ry
     Harris-Foulkes estimate   =    -942.02386244 Ry
     estimated scf accuracy    <          1.6E-10 Ry

     iteration # 16     ecut=    40.00 Ry     beta= 0.60
     Davidson diagonalization with overlap
     ethr =  1.55E-13,  avg # of iterations =  3.0

     total cpu time spent up to now is    14761.1 secs

     total energy              =    -942.02386244 Ry
     Harris-Foulkes estimate   =    -942.02386244 Ry
     estimated scf accuracy    <          1.4E-10 Ry

     iteration # 17     ecut=    40.00 Ry     beta= 0.60
     Davidson diagonalization with overlap
     ethr =  1.38E-13,  avg # of iterations =  2.6

     total cpu time spent up to now is    14856.1 secs

     End of self-consistent calculation

     Number of k-points >= 100: set verbosity='high' to print the bands.

     the Fermi energy is    17.5608 ev

!    total energy              =    -942.02386244 Ry
     Harris-Foulkes estimate   =    -942.02386244 Ry
     estimated scf accuracy    <          2.5E-11 Ry

     The total energy is the sum of the following terms:

     one-electron contribution =    -157.49480040 Ry
     hartree contribution      =     130.71650795 Ry
     xc contribution           =    -143.60528040 Ry
     ewald contribution        =    -771.63974984 Ry
     smearing contrib. (-TS)   =      -0.00053975 Ry

     convergence has been achieved in  17 iterations

     Forces acting on atoms (cartesian axes, Ry/au):

     atom    1 type  2   force =     0.00000880    0.00105526    0.00000060
     atom    2 type  1   force =    -0.00052781    0.00160485    0.00206799
     atom    3 type  1   force =     0.00000696   -0.00497515   -0.00000132
     atom    4 type  1   force =     0.00115614   -0.00138137   -0.00211953
     atom    5 type  1   force =    -0.00270156    0.00173737   -0.00247376
     atom    6 type  1   force =     0.00051781    0.00160392   -0.00206704
     atom    7 type  1   force =     0.00270144    0.00173737    0.00247202
     atom    8 type  1   force =    -0.00116177   -0.00138224    0.00212104

     Total force =     0.009406     Total SCF correction =     0.000018


     Computing stress (Cartesian axis) and pressure

          total   stress  (Ry/bohr**3)                   (kbar)     P=   27.03
   0.00010753   0.00000001   0.00001122         15.82      0.00      1.65
   0.00000001   0.00009690  -0.00000000          0.00     14.26     -0.00
   0.00001122  -0.00000000   0.00034684          1.65     -0.00     51.02


     number of scf cycles    =   5
     number of bfgs steps    =   4

     enthalpy old            =    -942.0180376641 Ry
     enthalpy new            =    -942.0238624398 Ry

     CASE: enthalpy_new < enthalpy_old

     new trust radius        =       0.1598676780 bohr
     new conv_thr            =            1.0E-10 Ry

     new unit-cell volume =    986.88724 a.u.^3 (   146.24160 Ang^3 )
     density =      7.92803 g/cm^3

CELL_PARAMETERS (alat=  1.88972599)
   1.415322242   2.465379680  -5.199337444
   1.415317649  -2.465376202  -5.199336960
  -5.701008257  -0.000005303  -0.012439132

ATOMIC_POSITIONS (angstrom)
Ti      -0.009853712   0.004330899  -5.202423188
Nb      -1.419846000   0.831189249  -2.599154653
Nb      -2.860429149   0.003073548  -5.208671914
Nb      -4.287353753   0.813830456  -2.642951092
Nb      -2.887081063  -0.005144214 -10.418846229
Nb       1.399952968   0.831191020  -7.805742189
Nb      -0.003170584  -0.005141061 -10.397172411
Nb      -1.433547650   0.813830926  -7.774386747


     NEW-OLD atomic charge density approx. for the potential
     extrapolated charge  104.08352, renormalised to  103.00000

     total cpu time spent up to now is    14900.0 secs

     Self-consistent Calculation

     iteration #  1     ecut=    40.00 Ry     beta= 0.60
     Davidson diagonalization with overlap
     c_bands:  1 eigenvalues not converged
     c_bands:  1 eigenvalues not converged
     c_bands:  1 eigenvalues not converged
     c_bands:  1 eigenvalues not converged
     c_bands:  1 eigenvalues not converged
     c_bands:  1 eigenvalues not converged
     ethr =  1.00E-06,  avg # of iterations = 11.5

     total cpu time spent up to now is    15187.5 secs

     total energy              =    -941.99215592 Ry
     Harris-Foulkes estimate   =    -940.82275331 Ry
     estimated scf accuracy    <       0.02733743 Ry

     iteration #  2     ecut=    40.00 Ry     beta= 0.60
     Davidson diagonalization with overlap
     c_bands:  1 eigenvalues not converged
     c_bands:  1 eigenvalues not converged
     ethr =  2.65E-05,  avg # of iterations =  6.2

     total cpu time spent up to now is    15383.8 secs

     total energy              =    -941.97044609 Ry
     Harris-Foulkes estimate   =    -942.08870547 Ry
     estimated scf accuracy    <       0.98425540 Ry

     iteration #  3     ecut=    40.00 Ry     beta= 0.60
     Davidson diagonalization with overlap
     ethr =  2.65E-05,  avg # of iterations =  5.4

     total cpu time spent up to now is    15545.1 secs

     total energy              =    -942.02254981 Ry
     Harris-Foulkes estimate   =    -942.03738928 Ry
     estimated scf accuracy    <       0.05066440 Ry

     iteration #  4     ecut=    40.00 Ry     beta= 0.60
     Davidson diagonalization with overlap
     ethr =  2.65E-05,  avg # of iterations =  4.5

     total cpu time spent up to now is    15669.6 secs

     total energy              =    -942.02610490 Ry
     Harris-Foulkes estimate   =    -942.03419239 Ry
     estimated scf accuracy    <       0.06207556 Ry

     iteration #  5     ecut=    40.00 Ry     beta= 0.60
     Davidson diagonalization with overlap
     ethr =  2.65E-05,  avg # of iterations =  2.4

     total cpu time spent up to now is    15760.0 secs

     total energy              =    -942.02855204 Ry
     Harris-Foulkes estimate   =    -942.02935996 Ry
     estimated scf accuracy    <       0.00938991 Ry

     iteration #  6     ecut=    40.00 Ry     beta= 0.60
     Davidson diagonalization with overlap
     ethr =  9.12E-06,  avg # of iterations =  3.1

     total cpu time spent up to now is    15854.2 secs

     total energy              =    -942.02760493 Ry
     Harris-Foulkes estimate   =    -942.02897924 Ry
     estimated scf accuracy    <       0.00746846 Ry

     iteration #  7     ecut=    40.00 Ry     beta= 0.60
     Davidson diagonalization with overlap
     ethr =  7.25E-06,  avg # of iterations =  1.3

     total cpu time spent up to now is    15937.5 secs

[...]

     total energy              =    -942.09816265 Ry
     Harris-Foulkes estimate   =    -942.09820329 Ry
     estimated scf accuracy    <       0.00012584 Ry

     iteration #  4     ecut=    40.00 Ry     beta= 0.60
     Davidson diagonalization with overlap
     ethr =  1.22E-07,  avg # of iterations =  2.8

     total cpu time spent up to now is   117769.8 secs

     total energy              =    -942.09817216 Ry
     Harris-Foulkes estimate   =    -942.09818839 Ry
     estimated scf accuracy    <       0.00008722 Ry

     iteration #  5     ecut=    40.00 Ry     beta= 0.60
     Davidson diagonalization with overlap
     ethr =  8.47E-08,  avg # of iterations =  2.0

     total cpu time spent up to now is   117855.7 secs

     total energy              =    -942.09817551 Ry
     Harris-Foulkes estimate   =    -942.09818003 Ry
     estimated scf accuracy    <       0.00001969 Ry

     iteration #  6     ecut=    40.00 Ry     beta= 0.60
     Davidson diagonalization with overlap
     ethr =  1.91E-08,  avg # of iterations =  3.0

     total cpu time spent up to now is   117960.4 secs

     total energy              =    -942.09817349 Ry
     Harris-Foulkes estimate   =    -942.09818084 Ry
     estimated scf accuracy    <       0.00003348 Ry

     iteration #  7     ecut=    40.00 Ry     beta= 0.60
     Davidson diagonalization with overlap
     ethr =  1.91E-08,  avg # of iterations =  3.1

     total cpu time spent up to now is   118062.8 secs

     total energy              =    -942.09817679 Ry
     Harris-Foulkes estimate   =    -942.09817723 Ry
     estimated scf accuracy    <       0.00000219 Ry

     iteration #  8     ecut=    40.00 Ry     beta= 0.60
     Davidson diagonalization with overlap
     ethr =  2.12E-09,  avg # of iterations =  3.2

     total cpu time spent up to now is   118168.6 secs

     total energy              =    -942.09817696 Ry
     Harris-Foulkes estimate   =    -942.09817725 Ry
     estimated scf accuracy    <       0.00000181 Ry

     iteration #  9     ecut=    40.00 Ry     beta= 0.60
     Davidson diagonalization with overlap
     ethr =  1.75E-09,  avg # of iterations =  1.1

     total cpu time spent up to now is   118249.0 secs

     total energy              =    -942.09817701 Ry
     Harris-Foulkes estimate   =    -942.09817708 Ry
     estimated scf accuracy    <       0.00000032 Ry

     iteration # 10     ecut=    40.00 Ry     beta= 0.60
     Davidson diagonalization with overlap
     ethr =  3.06E-10,  avg # of iterations =  3.3

     total cpu time spent up to now is   118355.3 secs

     total energy              =    -942.09817706 Ry
     Harris-Foulkes estimate   =    -942.09817707 Ry
     estimated scf accuracy    <       0.00000005 Ry

     iteration # 11     ecut=    40.00 Ry     beta= 0.60
     Davidson diagonalization with overlap
     ethr =  5.27E-11,  avg # of iterations =  2.1

     total cpu time spent up to now is   118444.5 secs

     total energy              =    -942.09817706 Ry
     Harris-Foulkes estimate   =    -942.09817706 Ry
     estimated scf accuracy    <       0.00000003 Ry

     iteration # 12     ecut=    40.00 Ry     beta= 0.60
     Davidson diagonalization with overlap
     ethr =  2.51E-11,  avg # of iterations =  3.0

     total cpu time spent up to now is   118546.7 secs

     total energy              =    -942.09817706 Ry
     Harris-Foulkes estimate   =    -942.09817706 Ry
     estimated scf accuracy    <          7.5E-09 Ry

     iteration # 13     ecut=    40.00 Ry     beta= 0.60
     Davidson diagonalization with overlap
     ethr =  7.32E-12,  avg # of iterations =  2.6

     total cpu time spent up to now is   118642.9 secs

     total energy              =    -942.09817706 Ry
     Harris-Foulkes estimate   =    -942.09817706 Ry
     estimated scf accuracy    <          2.2E-09 Ry

     iteration # 14     ecut=    40.00 Ry     beta= 0.60
     Davidson diagonalization with overlap
     ethr =  2.16E-12,  avg # of iterations =  2.6

     total cpu time spent up to now is   118740.4 secs

     total energy              =    -942.09817706 Ry
     Harris-Foulkes estimate   =    -942.09817706 Ry
     estimated scf accuracy    <          2.9E-10 Ry

     iteration # 15     ecut=    40.00 Ry     beta= 0.60
     Davidson diagonalization with overlap
     ethr =  2.85E-13,  avg # of iterations =  2.8

     total cpu time spent up to now is   118841.9 secs

     total energy              =    -942.09817706 Ry
     Harris-Foulkes estimate   =    -942.09817706 Ry
     estimated scf accuracy    <          1.6E-10 Ry

     iteration # 16     ecut=    40.00 Ry     beta= 0.60
     Davidson diagonalization with overlap
     ethr =  1.56E-13,  avg # of iterations =  3.5

     total cpu time spent up to now is   118957.1 secs

     total energy              =    -942.09817706 Ry
     Harris-Foulkes estimate   =    -942.09817706 Ry
     estimated scf accuracy    <          6.2E-10 Ry

     iteration # 17     ecut=    40.00 Ry     beta= 0.60
     Davidson diagonalization with overlap
     ethr =  1.56E-13,  avg # of iterations =  3.2

     total cpu time spent up to now is   119066.8 secs

     End of self-consistent calculation

     Number of k-points >= 100: set verbosity='high' to print the bands.

     the Fermi energy is    17.2122 ev

!    total energy              =    -942.09817706 Ry
     Harris-Foulkes estimate   =    -942.09817706 Ry
     estimated scf accuracy    <          5.0E-11 Ry

     The total energy is the sum of the following terms:

     one-electron contribution =    -160.89692775 Ry
     hartree contribution      =     131.69859713 Ry
     xc contribution           =    -143.56251405 Ry
     ewald contribution        =    -769.34068697 Ry
     smearing contrib. (-TS)   =       0.00335457 Ry

     convergence has been achieved in  17 iterations

     Forces acting on atoms (cartesian axes, Ry/au):

     atom    1 type  2   force =    -0.00000870   -0.00337523   -0.00002427
     atom    2 type  1   force =     0.00113156    0.00083842    0.00013976
     atom    3 type  1   force =    -0.00006665   -0.00266700    0.00001510
     atom    4 type  1   force =    -0.00319843    0.00122566    0.00162993
     atom    5 type  1   force =     0.00049107    0.00090310   -0.00102737
     atom    6 type  1   force =    -0.00101188    0.00087708   -0.00023286
     atom    7 type  1   force =    -0.00060879    0.00095873    0.00107893
     atom    8 type  1   force =     0.00327183    0.00123924   -0.00157923

     Total force =     0.007487     Total SCF correction =     0.000029


     Computing stress (Cartesian axis) and pressure

          total   stress  (Ry/bohr**3)                   (kbar)     P=   -0.76
   0.00001480   0.00000035   0.00000387          2.18      0.05      0.57
   0.00000035  -0.00002217  -0.00000023          0.05     -3.26     -0.03
   0.00000387  -0.00000023  -0.00000818          0.57     -0.03     -1.20


     number of scf cycles    =  49
     number of bfgs steps    =  48

     enthalpy old            =    -942.0980531980 Ry
     enthalpy new            =    -942.0981770615 Ry

     CASE: enthalpy_new < enthalpy_old

     new trust radius        =       0.0126927110 bohr
     new conv_thr            =            1.0E-10 Ry

     new unit-cell volume =    982.36921 a.u.^3 (   145.57210 Ang^3 )
     density =      7.96449 g/cm^3

CELL_PARAMETERS (alat=  1.88972599)
   0.704862866   2.692258808  -4.873631412
   0.706154598  -2.690706189  -4.871969479
  -5.440991691   0.001032847  -0.751583214

ATOMIC_POSITIONS (angstrom)
Ti      -0.656203773  -0.202163294  -5.060011228
Nb      -1.676970037   1.122793413  -2.714426642
Nb      -3.376601260  -0.223649063  -5.437197039
Nb      -4.381674199   1.107549448  -3.098981334
Nb      -4.037707568  -0.216914534 -10.498792094
Nb       0.369349619   1.122968912  -7.406496088
Nb      -1.304038367  -0.218026720 -10.119885821
Nb      -2.366385413   1.108492487  -7.775445878


     NEW-OLD atomic charge density approx. for the potential
     extrapolated charge  102.89060, renormalised to  103.00000

     total cpu time spent up to now is   119110.5 secs

     Self-consistent Calculation

     iteration #  1     ecut=    40.00 Ry     beta= 0.60
     Davidson diagonalization with overlap
     ethr =  1.00E-06,  avg # of iterations =  4.0

     total cpu time spent up to now is   119284.8 secs

     total energy              =    -942.09778352 Ry
     Harris-Foulkes estimate   =    -942.21832707 Ry
     estimated scf accuracy    <       0.00049088 Ry

     iteration #  2     ecut=    40.00 Ry     beta= 0.60
     Davidson diagonalization with overlap
     ethr =  4.77E-07,  avg # of iterations =  5.9

     total cpu time spent up to now is   119475.4 secs

     total energy              =    -942.09744803 Ry
     Harris-Foulkes estimate   =    -942.09929232 Ry
     estimated scf accuracy    <       0.01206995 Ry

     iteration #  3     ecut=    40.00 Ry     beta= 0.60
     Davidson diagonalization with overlap
     ethr =  4.77E-07,  avg # of iterations =  5.0

     total cpu time spent up to now is   119621.4 secs

     total energy              =    -942.09825182 Ry
     Harris-Foulkes estimate   =    -942.09839503 Ry
     estimated scf accuracy    <       0.00043876 Ry

     iteration #  4     ecut=    40.00 Ry     beta= 0.60
     Davidson diagonalization with overlap
     ethr =  4.26E-07,  avg # of iterations =  2.3

     total cpu time spent up to now is   119716.4 secs

     total energy              =    -942.09829316 Ry
     Harris-Foulkes estimate   =    -942.09832561 Ry
     estimated scf accuracy    <       0.00020611 Ry

     iteration #  5     ecut=    40.00 Ry     beta= 0.60
     Davidson diagonalization with overlap
     ethr =  2.00E-07,  avg # of iterations =  1.6

     total cpu time spent up to now is   119799.1 secs

     total energy              =    -942.09829771 Ry
     Harris-Foulkes estimate   =    -942.09830659 Ry
     estimated scf accuracy    <       0.00007364 Ry

     iteration #  6     ecut=    40.00 Ry     beta= 0.60
     Davidson diagonalization with overlap
     ethr =  7.15E-08,  avg # of iterations =  1.7

     total cpu time spent up to now is   119882.8 secs

     total energy              =    -942.09828726 Ry
     Harris-Foulkes estimate   =    -942.09830224 Ry
     estimated scf accuracy    <       0.00005766 Ry

     iteration #  7     ecut=    40.00 Ry     beta= 0.60
     Davidson diagonalization with overlap
     ethr =  5.60E-08,  avg # of iterations =  2.3

     total cpu time spent up to now is   119973.1 secs

     total energy              =    -942.09829083 Ry
     Harris-Foulkes estimate   =    -942.09829275 Ry
     estimated scf accuracy    <       0.00000725 Ry

     iteration #  8     ecut=    40.00 Ry     beta= 0.60
     Davidson diagonalization with overlap
     ethr =  7.04E-09,  avg # of iterations =  3.7

     total cpu time spent up to now is   120086.5 secs

     total energy              =    -942.09829196 Ry
     Harris-Foulkes estimate   =    -942.09829269 Ry
     estimated scf accuracy    <       0.00000501 Ry

     iteration #  9     ecut=    40.00 Ry     beta= 0.60
     Davidson diagonalization with overlap
     ethr =  4.87E-09,  avg # of iterations =  1.2

     total cpu time spent up to now is   120167.1 secs

     total energy              =    -942.09829202 Ry
     Harris-Foulkes estimate   =    -942.09829228 Ry
     estimated scf accuracy    <       0.00000117 Ry

     iteration # 10     ecut=    40.00 Ry     beta= 0.60
     Davidson diagonalization with overlap
     ethr =  1.14E-09,  avg # of iterations =  3.2

     total cpu time spent up to now is   120274.5 secs

     total energy              =    -942.09829218 Ry
     Harris-Foulkes estimate   =    -942.09829222 Ry
     estimated scf accuracy    <       0.00000018 Ry

     iteration # 11     ecut=    40.00 Ry     beta= 0.60
     Davidson diagonalization with overlap
     ethr =  1.79E-10,  avg # of iterations =  2.4

     total cpu time spent up to now is   120364.6 secs

     total energy              =    -942.09829218 Ry
     Harris-Foulkes estimate   =    -942.09829219 Ry
     estimated scf accuracy    <       0.00000004 Ry

     iteration # 12     ecut=    40.00 Ry     beta= 0.60
     Davidson diagonalization with overlap
     ethr =  3.63E-11,  avg # of iterations =  3.5

     total cpu time spent up to now is   120477.1 secs

     total energy              =    -942.09829219 Ry
     Harris-Foulkes estimate   =    -942.09829220 Ry
     estimated scf accuracy    <       0.00000002 Ry

     iteration # 13     ecut=    40.00 Ry     beta= 0.60
     Davidson diagonalization with overlap
     ethr =  2.39E-11,  avg # of iterations =  2.1

     total cpu time spent up to now is   120565.5 secs

     total energy              =    -942.09829219 Ry
     Harris-Foulkes estimate   =    -942.09829219 Ry
     estimated scf accuracy    <          4.4E-09 Ry

     iteration # 14     ecut=    40.00 Ry     beta= 0.60
     Davidson diagonalization with overlap
     ethr =  4.26E-12,  avg # of iterations =  3.1

     total cpu time spent up to now is   120681.2 secs

     total energy              =    -942.09829219 Ry
     Harris-Foulkes estimate   =    -942.09829219 Ry
     estimated scf accuracy    <          1.9E-09 Ry

     iteration # 15     ecut=    40.00 Ry     beta= 0.60
     Davidson diagonalization with overlap
     ethr =  1.89E-12,  avg # of iterations =  2.0

     total cpu time spent up to now is   120803.4 secs

     total energy              =    -942.09829219 Ry
     Harris-Foulkes estimate   =    -942.09829219 Ry
     estimated scf accuracy    <          1.9E-10 Ry

     iteration # 16     ecut=    40.00 Ry     beta= 0.60
     Davidson diagonalization with overlap
     ethr =  1.84E-13,  avg # of iterations =  3.9

     total cpu time spent up to now is   120974.7 secs

     total energy              =    -942.09829219 Ry
     Harris-Foulkes estimate   =    -942.09829219 Ry
     estimated scf accuracy    <          7.2E-10 Ry

     iteration # 17     ecut=    40.00 Ry     beta= 0.60
     Davidson diagonalization with overlap
     ethr =  1.84E-13,  avg # of iterations =  3.2

     total cpu time spent up to now is   121128.7 secs

     End of self-consistent calculation

     Number of k-points >= 100: set verbosity='high' to print the bands.

     the Fermi energy is    17.2344 ev

!    total energy              =    -942.09829219 Ry
     Harris-Foulkes estimate   =    -942.09829219 Ry
     estimated scf accuracy    <          5.2E-11 Ry

     The total energy is the sum of the following terms:

     one-electron contribution =    -160.44406335 Ry
     hartree contribution      =     131.56134387 Ry
     xc contribution           =    -143.57007446 Ry
     ewald contribution        =    -769.64882814 Ry
     smearing contrib. (-TS)   =       0.00332989 Ry

     convergence has been achieved in  17 iterations

     Forces acting on atoms (cartesian axes, Ry/au):

     atom    1 type  2   force =    -0.00000825   -0.00246444   -0.00003313
     atom    2 type  1   force =     0.00036382    0.00032838    0.00070593
     atom    3 type  1   force =    -0.00006355   -0.00138519    0.00001829
     atom    4 type  1   force =    -0.00209918    0.00157759    0.00125200
     atom    5 type  1   force =     0.00077489   -0.00002132   -0.00017178
     atom    6 type  1   force =    -0.00024161    0.00035890   -0.00076547
     atom    7 type  1   force =    -0.00089248    0.00002366    0.00019730
     atom    8 type  1   force =     0.00216636    0.00158243   -0.00120312

     Total force =     0.005299     Total SCF correction =     0.000014


     Computing stress (Cartesian axis) and pressure

          total   stress  (Ry/bohr**3)                   (kbar)     P=    0.87
   0.00002115   0.00000034  -0.00000021          3.11      0.05     -0.03
   0.00000034  -0.00000320  -0.00000020          0.05     -0.47     -0.03
  -0.00000021  -0.00000020  -0.00000012         -0.03     -0.03     -0.02


     number of scf cycles    =  50
     number of bfgs steps    =  49

     enthalpy old            =    -942.0981770615 Ry
     enthalpy new            =    -942.0982921940 Ry

     CASE: enthalpy_new < enthalpy_old

     new trust radius        =       0.0147737009 bohr
     new conv_thr            =            1.0E-10 Ry

     new unit-cell volume =    981.88024 a.u.^3 (   145.49964 Ang^3 )
     density =      7.96846 g/cm^3

CELL_PARAMETERS (alat=  1.88972599)
   0.702676762   2.688507252  -4.872417545
   0.703805155  -2.686624587  -4.870666908
  -5.447271475   0.000801931  -0.757111749

ATOMIC_POSITIONS (angstrom)
Ti      -0.660095008  -0.209566516  -5.060199306
Nb      -1.679528234   1.121677287  -2.716552999
Nb      -3.383680824  -0.225851235  -5.440078028
Nb      -4.391385400   1.109703701  -3.102238962
Nb      -4.048168329  -0.215812894 -10.503249691
Nb       0.364456611   1.122134641  -7.404750104
Nb      -1.312261702  -0.216719507 -10.118666623
Nb      -2.370395975   1.110874179  -7.777855758


     NEW-OLD atomic charge density approx. for the potential
     extrapolated charge  102.94921, renormalised to  103.00000
 
     init_run     :     49.50s CPU     50.50s WALL (       1 calls)
     electrons    : 116820.62s CPU 118754.14s WALL (      50 calls)
     update_pot   :     96.03s CPU     96.33s WALL (      50 calls)
     forces       :    583.32s CPU    592.35s WALL (      50 calls)
     stress       :   1645.91s CPU   1669.32s WALL (      50 calls)

     Called by init_run:
     wfcinit      :     47.54s CPU     48.39s WALL (       1 calls)
     potinit      :      0.59s CPU      0.60s WALL (       1 calls)
     hinit0       :      1.04s CPU      1.05s WALL (       1 calls)

     Called by electrons:
     c_bands      : 102878.35s CPU 104358.41s WALL (     970 calls)
     sum_band     :  13592.93s CPU  13901.61s WALL (     970 calls)
     v_of_rho     :     60.01s CPU     60.45s WALL (    1021 calls)
     newd         :    294.80s CPU    415.91s WALL (    1021 calls)
     mix_rho      :      7.60s CPU      7.67s WALL (     970 calls)

     Called by c_bands:
     init_us_2    :   1324.60s CPU   1337.77s WALL ( 1028664 calls)
     cegterg      :  95102.10s CPU  96283.18s WALL (  488880 calls)

     Called by sum_band:
     sum_band:bec :     46.15s CPU     46.87s WALL (  488880 calls)
     addusdens    :    327.84s CPU    432.40s WALL (     970 calls)

     Called by *egterg:
     h_psi        :  57492.89s CPU  58475.07s WALL ( 2152078 calls)
     s_psi        :   4120.24s CPU   4135.63s WALL ( 2152078 calls)
     g_psi        :    463.87s CPU    468.95s WALL ( 1662694 calls)
     cdiaghg      :  17523.24s CPU  17575.08s WALL ( 2126878 calls)

     Called by h_psi:
     h_psi:pot    :  57172.88s CPU  58152.56s WALL ( 2152078 calls)
     h_psi:calbec :   4265.43s CPU   4294.90s WALL ( 2152078 calls)
     vloc_psi     :  48705.06s CPU  49631.47s WALL ( 2152078 calls)
     add_vuspsi   :   4190.06s CPU   4211.10s WALL ( 2152078 calls)

     General routines
     calbec       :   6083.00s CPU   6121.93s WALL ( 2766958 calls)
     fft          :     44.26s CPU     45.11s WALL (   14524 calls)
     ffts         :      1.21s CPU      1.24s WALL (    1991 calls)
     fftw         :  53026.17s CPU  53987.81s WALL (******** calls)
     interpolate  :      3.27s CPU      3.31s WALL (    1021 calls)
     davcio       :      0.01s CPU      0.51s WALL (     504 calls)
 
     Parallel routines
     fft_scatt_xy :   9888.82s CPU  10068.19s WALL (******** calls)
     fft_scatt_yz :  10917.94s CPU  11242.28s WALL (******** calls)
 
     PWSCF        :     1d    9h 6m CPU        1d    9h39m WALL

 
   This run was terminated on:  22:18:16   9Feb2020            

=------------------------------------------------------------------------------=
   JOB DONE.
=------------------------------------------------------------------------------=
