
     Program PWSCF v.6.3MaX starts on 24Jan2020 at 12:12:38 

     This program is part of the open-source Quantum ESPRESSO suite
     for quantum simulation of materials; please cite
         "P. Giannozzi et al., J. Phys.:Condens. Matter 21 395502 (2009);
         "P. Giannozzi et al., J. Phys.:Condens. Matter 29 465901 (2017);
          URL http://www.quantum-espresso.org", 
     in publications or presentations arising from this work. More details at
     http://www.quantum-espresso.org/quote

     Parallel version (MPI), running on     4 processors

     MPI processes distributed on     1 nodes
     R & G space division:  proc/nbgrp/npool/nimage =       4
     Waiting for input...
     Reading input from standard input

     Current dimensions of program PWSCF are:
     Max number of different atomic species (ntypx) = 10
     Max number of k-points (npk) =  40000
     Max angular momentum in pseudopotentials (lmaxx) =  3
     Message from routine iosys:
     minimal I/O required, wf_collect reset to FALSE

     Subspace diagonalization in iterative solution of the eigenvalue problem:
     a serial algorithm will be used

 
     Parallelization info
     --------------------
     sticks:   dense  smooth     PW     G-vecs:    dense   smooth      PW
     Min         695     276     93                34663     8768    1704
     Max         696     277     94                34667     8770    1707
     Sum        2781    1105    375               138659    35075    6825
 


     bravais-lattice index     =            0
     lattice parameter (alat)  =       1.8897  a.u.
     unit-cell volume          =     733.3418 (a.u.)^3
     number of atoms/cell      =            5
     number of atomic types    =            2
     number of electrons       =        61.00
     number of Kohn-Sham states=           37
     kinetic-energy cutoff     =      50.0000  Ry
     charge density cutoff     =     500.0000  Ry
     convergence threshold     =      1.0E-10
     mixing beta               =       0.6000
     number of iterations used =            8  plain     mixing
     Exchange-correlation      = SLA PW PBE PBE ( 1  4  3  4 0 0)
     nstep                     =           50


     celldm(1)=   1.889726  celldm(2)=   0.000000  celldm(3)=   0.000000
     celldm(4)=   0.000000  celldm(5)=   0.000000  celldm(6)=   0.000000

     crystal axes: (cart. coord. in units of alat)
               a(1) = (  -1.758031  -5.274095  -1.758031 )  
               a(2) = (  -1.758031   5.274095   1.758031 )  
               a(3) = (   1.758031   1.758031  -5.274095 )  

     reciprocal axes: (cart. coord. in units 2 pi/alat)
               b(1) = ( -0.284409 -0.056882 -0.113764 )  
               b(2) = ( -0.284409  0.113764 -0.056882 )  
               b(3) = (  0.000000  0.056882 -0.170645 )  


     PseudoPot. # 1 for Nb read from file:
     ./Nb.pbe-nsp-van.UPF
     MD5 check sum: 0a22fc7fb0ba19a08ca5db297a5d2854
     Pseudo is Ultrasoft + core correction, Zval = 13.0
     Generated by new atomic code, or converted to UPF format
     Using radial grid of  887 points,  6 beta functions with: 
                l(1) =   0
                l(2) =   0
                l(3) =   1
                l(4) =   1
                l(5) =   2
                l(6) =   2
     Q(r) pseudized with  6 coefficients,  rinner =    1.000   1.000   1.000
                                                       1.000   1.000

     PseudoPot. # 2 for Ti read from file:
     ./Ti.pbe-sp-van_ak.UPF
     MD5 check sum: f98fea3e8887528921fefa5636a534ca
     Pseudo is Ultrasoft, Zval = 12.0
     Generated by new atomic code, or converted to UPF format
     Using radial grid of  851 points,  6 beta functions with: 
                l(1) =   0
                l(2) =   0
                l(3) =   1
                l(4) =   1
                l(5) =   2
                l(6) =   2
     Q(r) pseudized with  8 coefficients,  rinner =    1.000   1.000   1.000
                                                       1.000   1.000

     atomic species   valence    mass     pseudopotential
        Nb            13.00    92.90638     Nb( 1.00)
        Ti            12.00    47.86700     Ti( 1.00)

      2 Sym. Ops. (no inversion) found



   Cartesian axes

     site n.     atom                  positions (alat units)
         1           Ti  tau(   1) = (  -1.7580316   1.7580316  -5.2740949  )
         2           Ti  tau(   2) = (  -1.7580316   1.7580316  -1.7580316  )
         3           Ti  tau(   3) = (  -1.7580316  -1.7580316  -1.7580316  )
         4           Ti  tau(   4) = (   0.0000000   3.5160633  -3.5160633  )
         5           Nb  tau(   5) = (   0.0000000   0.0000000  -3.5160633  )

     number of k points=   476  Marzari-Vanderbilt smearing, width (Ry)=  0.0200

     Number of k-points >= 100: set verbosity='high' to print them.

     Dense  grid:   138659 G-vectors     FFT dimensions: (  80,  80,  80)

     Smooth grid:    35075 G-vectors     FFT dimensions: (  50,  50,  50)

     Estimated max dynamical RAM per process >     428.67 MB

     Estimated total dynamical RAM >       1.67 GB

     Initial potential from superposition of free atoms

     starting charge   56.99709, renormalised to   61.00000
     Starting wfcs are   53 randomized atomic wfcs

     total cpu time spent up to now is       37.6 secs

     Self-consistent Calculation

     iteration #  1     ecut=    50.00 Ry     beta= 0.60
     Davidson diagonalization with overlap
     ethr =  1.00E-02,  avg # of iterations =  4.0

     total cpu time spent up to now is      115.4 secs

     total energy              =    -580.58818220 Ry
     Harris-Foulkes estimate   =    -586.23138274 Ry
     estimated scf accuracy    <       7.37520420 Ry

     iteration #  2     ecut=    50.00 Ry     beta= 0.60
     Davidson diagonalization with overlap
     ethr =  1.00E-02,  avg # of iterations =  5.0

     total cpu time spent up to now is      204.3 secs

     total energy              =    -579.23375795 Ry
     Harris-Foulkes estimate   =    -592.71340861 Ry
     estimated scf accuracy    <      47.57189838 Ry

     iteration #  3     ecut=    50.00 Ry     beta= 0.60
     Davidson diagonalization with overlap
     ethr =  1.00E-02,  avg # of iterations =  4.9

     total cpu time spent up to now is      285.4 secs

     total energy              =    -584.06034574 Ry
     Harris-Foulkes estimate   =    -584.68043829 Ry
     estimated scf accuracy    <       2.49472733 Ry

     iteration #  4     ecut=    50.00 Ry     beta= 0.60
     Davidson diagonalization with overlap
     ethr =  4.09E-03,  avg # of iterations =  3.7

     total cpu time spent up to now is      347.5 secs

     total energy              =    -584.35323985 Ry
     Harris-Foulkes estimate   =    -584.38428262 Ry
     estimated scf accuracy    <       0.10346335 Ry

     iteration #  5     ecut=    50.00 Ry     beta= 0.60
     Davidson diagonalization with overlap
     ethr =  1.70E-04,  avg # of iterations =  6.8

     total cpu time spent up to now is      448.4 secs

     total energy              =    -584.40202730 Ry
     Harris-Foulkes estimate   =    -584.41631965 Ry
     estimated scf accuracy    <       0.08364270 Ry

     iteration #  6     ecut=    50.00 Ry     beta= 0.60
     Davidson diagonalization with overlap
     ethr =  1.37E-04,  avg # of iterations =  4.1

     total cpu time spent up to now is      517.4 secs

     total energy              =    -584.41336652 Ry
     Harris-Foulkes estimate   =    -584.42465954 Ry
     estimated scf accuracy    <       0.14855157 Ry

     iteration #  7     ecut=    50.00 Ry     beta= 0.60
     Davidson diagonalization with overlap
     ethr =  1.37E-04,  avg # of iterations =  1.0

     total cpu time spent up to now is      567.3 secs

     total energy              =    -584.41273312 Ry
     Harris-Foulkes estimate   =    -584.41755713 Ry
     estimated scf accuracy    <       0.05602243 Ry

     iteration #  8     ecut=    50.00 Ry     beta= 0.60
     Davidson diagonalization with overlap
     ethr =  9.18E-05,  avg # of iterations =  1.0

     total cpu time spent up to now is      617.4 secs

     total energy              =    -584.40923184 Ry
     Harris-Foulkes estimate   =    -584.41369177 Ry
     estimated scf accuracy    <       0.04705704 Ry

     iteration #  9     ecut=    50.00 Ry     beta= 0.60
     Davidson diagonalization with overlap
     ethr =  7.71E-05,  avg # of iterations =  1.0

     total cpu time spent up to now is      667.5 secs

     total energy              =    -584.40247207 Ry
     Harris-Foulkes estimate   =    -584.41039722 Ry
     estimated scf accuracy    <       0.03738130 Ry

     iteration # 10     ecut=    50.00 Ry     beta= 0.60
     Davidson diagonalization with overlap
     ethr =  6.13E-05,  avg # of iterations =  3.3

     total cpu time spent up to now is      728.5 secs

     total energy              =    -584.40565611 Ry
     Harris-Foulkes estimate   =    -584.40598853 Ry
     estimated scf accuracy    <       0.00211605 Ry

     iteration # 11     ecut=    50.00 Ry     beta= 0.60
     Davidson diagonalization with overlap
     c_bands:  1 eigenvalues not converged
     ethr =  3.47E-06,  avg # of iterations =  7.9

     total cpu time spent up to now is      822.9 secs

     total energy              =    -584.40615541 Ry
     Harris-Foulkes estimate   =    -584.40626448 Ry
     estimated scf accuracy    <       0.00196510 Ry

     iteration # 12     ecut=    50.00 Ry     beta= 0.60
     Davidson diagonalization with overlap
     ethr =  3.22E-06,  avg # of iterations =  1.0

     total cpu time spent up to now is      873.9 secs

     total energy              =    -584.40605621 Ry
     Harris-Foulkes estimate   =    -584.40621563 Ry
     estimated scf accuracy    <       0.00121480 Ry

     iteration # 13     ecut=    50.00 Ry     beta= 0.60
     Davidson diagonalization with overlap
     c_bands:  1 eigenvalues not converged
     ethr =  1.99E-06,  avg # of iterations =  4.4

     total cpu time spent up to now is      939.4 secs

     total energy              =    -584.40612595 Ry
     Harris-Foulkes estimate   =    -584.40622267 Ry
     estimated scf accuracy    <       0.00120750 Ry

     iteration # 14     ecut=    50.00 Ry     beta= 0.60
     Davidson diagonalization with overlap
     ethr =  1.98E-06,  avg # of iterations =  1.1

     total cpu time spent up to now is      992.0 secs

     total energy              =    -584.40610366 Ry
     Harris-Foulkes estimate   =    -584.40615352 Ry
     estimated scf accuracy    <       0.00055679 Ry

     iteration # 15     ecut=    50.00 Ry     beta= 0.60
     Davidson diagonalization with overlap
     ethr =  9.13E-07,  avg # of iterations =  2.9

     total cpu time spent up to now is     1049.2 secs

     total energy              =    -584.40612545 Ry
     Harris-Foulkes estimate   =    -584.40613296 Ry
     estimated scf accuracy    <       0.00006638 Ry

     iteration # 16     ecut=    50.00 Ry     beta= 0.60
     Davidson diagonalization with overlap
     ethr =  1.09E-07,  avg # of iterations =  5.1

     total cpu time spent up to now is     1127.0 secs

     total energy              =    -584.40614207 Ry
     Harris-Foulkes estimate   =    -584.40614430 Ry
     estimated scf accuracy    <       0.00002142 Ry

     iteration # 17     ecut=    50.00 Ry     beta= 0.60
     Davidson diagonalization with overlap
     ethr =  3.51E-08,  avg # of iterations =  1.3

     total cpu time spent up to now is     1178.7 secs

     total energy              =    -584.40614130 Ry
     Harris-Foulkes estimate   =    -584.40614273 Ry
     estimated scf accuracy    <       0.00000643 Ry

     iteration # 18     ecut=    50.00 Ry     beta= 0.60
     Davidson diagonalization with overlap
     ethr =  1.05E-08,  avg # of iterations =  4.3

     total cpu time spent up to now is     1253.0 secs

     total energy              =    -584.40614251 Ry
     Harris-Foulkes estimate   =    -584.40614338 Ry
     estimated scf accuracy    <       0.00000817 Ry

     iteration # 19     ecut=    50.00 Ry     beta= 0.60
     Davidson diagonalization with overlap
     ethr =  1.05E-08,  avg # of iterations =  1.0

     total cpu time spent up to now is     1303.9 secs

     total energy              =    -584.40614254 Ry
     Harris-Foulkes estimate   =    -584.40614276 Ry
     estimated scf accuracy    <       0.00000168 Ry

     iteration # 20     ecut=    50.00 Ry     beta= 0.60
     Davidson diagonalization with overlap
     ethr =  2.76E-09,  avg # of iterations =  4.1

     total cpu time spent up to now is     1376.4 secs

     total energy              =    -584.40614286 Ry
     Harris-Foulkes estimate   =    -584.40614290 Ry
     estimated scf accuracy    <       0.00000061 Ry

     iteration # 21     ecut=    50.00 Ry     beta= 0.60
     Davidson diagonalization with overlap
     ethr =  9.96E-10,  avg # of iterations =  1.0

     total cpu time spent up to now is     1427.4 secs

     total energy              =    -584.40614286 Ry
     Harris-Foulkes estimate   =    -584.40614288 Ry
     estimated scf accuracy    <       0.00000031 Ry

     iteration # 22     ecut=    50.00 Ry     beta= 0.60
     Davidson diagonalization with overlap
     ethr =  5.11E-10,  avg # of iterations =  1.2

     total cpu time spent up to now is     1478.7 secs

     total energy              =    -584.40614285 Ry
     Harris-Foulkes estimate   =    -584.40614287 Ry
     estimated scf accuracy    <       0.00000022 Ry

     iteration # 23     ecut=    50.00 Ry     beta= 0.60
     Davidson diagonalization with overlap
     ethr =  3.64E-10,  avg # of iterations =  2.7

     total cpu time spent up to now is     1534.4 secs

     total energy              =    -584.40614286 Ry
     Harris-Foulkes estimate   =    -584.40614286 Ry
     estimated scf accuracy    <       0.00000002 Ry

     iteration # 24     ecut=    50.00 Ry     beta= 0.60
     Davidson diagonalization with overlap
     ethr =  3.29E-11,  avg # of iterations =  5.1

     total cpu time spent up to now is     1617.3 secs

     total energy              =    -584.40614287 Ry
     Harris-Foulkes estimate   =    -584.40614287 Ry
     estimated scf accuracy    <       0.00000004 Ry

     iteration # 25     ecut=    50.00 Ry     beta= 0.60
     Davidson diagonalization with overlap
     ethr =  3.29E-11,  avg # of iterations =  1.0

     total cpu time spent up to now is     1668.3 secs

     total energy              =    -584.40614286 Ry
     Harris-Foulkes estimate   =    -584.40614287 Ry
     estimated scf accuracy    <       0.00000003 Ry

     iteration # 26     ecut=    50.00 Ry     beta= 0.60
     Davidson diagonalization with overlap
     ethr =  3.29E-11,  avg # of iterations =  3.3

     total cpu time spent up to now is     1729.8 secs

     total energy              =    -584.40614287 Ry
     Harris-Foulkes estimate   =    -584.40614287 Ry
     estimated scf accuracy    <          1.2E-09 Ry

     iteration # 27     ecut=    50.00 Ry     beta= 0.60
     Davidson diagonalization with overlap
     ethr =  1.90E-12,  avg # of iterations =  5.0

     total cpu time spent up to now is     1806.7 secs

     total energy              =    -584.40614287 Ry
     Harris-Foulkes estimate   =    -584.40614287 Ry
     estimated scf accuracy    <          1.0E-09 Ry

     iteration # 28     ecut=    50.00 Ry     beta= 0.60
     Davidson diagonalization with overlap
     ethr =  1.69E-12,  avg # of iterations =  1.4

     total cpu time spent up to now is     1858.7 secs

     End of self-consistent calculation

     Number of k-points >= 100: set verbosity='high' to print the bands.

     the Fermi energy is    10.8475 ev

!    total energy              =    -584.40614287 Ry
     Harris-Foulkes estimate   =    -584.40614287 Ry
     estimated scf accuracy    <          3.1E-11 Ry

     The total energy is the sum of the following terms:

     one-electron contribution =    -228.20711967 Ry
     hartree contribution      =     127.34851027 Ry
     xc contribution           =     -75.75392263 Ry
     ewald contribution        =    -407.79128439 Ry
     smearing contrib. (-TS)   =      -0.00232644 Ry

     convergence has been achieved in  28 iterations

     Forces acting on atoms (cartesian axes, Ry/au):

     atom    1 type  2   force =     0.00000000   -0.01154183    0.00901480
     atom    2 type  2   force =     0.00000000   -0.00901475   -0.01154246
     atom    3 type  2   force =     0.00000000    0.01154226   -0.00901440
     atom    4 type  2   force =     0.00000000    0.00901417    0.01154199
     atom    5 type  1   force =     0.00000000    0.00000015    0.00000006

     Total force =     0.029290     Total SCF correction =     0.000008


     Computing stress (Cartesian axis) and pressure

          total   stress  (Ry/bohr**3)                   (kbar)     P= -180.50
  -0.00120466  -0.00000000  -0.00000000       -177.21     -0.00     -0.00
   0.00000000  -0.00123819   0.00000000          0.00   -182.14      0.00
  -0.00000000   0.00000000  -0.00123819         -0.00      0.00   -182.14


     BFGS Geometry Optimization

     number of scf cycles    =   1
     number of bfgs steps    =   0

     enthalpy new            =    -584.4061428666 Ry

     new trust radius        =       0.1676527360 bohr
     new conv_thr            =            1.0E-10 Ry

     new unit-cell volume =    667.90419 a.u.^3 (    98.97319 Ang^3 )
     density =      4.77114 g/cm^3

CELL_PARAMETERS (alat=  1.88972599)
  -1.705085824  -5.110836280  -1.703612084
  -1.705085824   5.110836280   1.703612084
   1.705085824   1.703612065  -5.110836168

ATOMIC_POSITIONS (angstrom)
Ti      -1.705085824   1.697693455  -5.106213407
Ti      -1.705085824   1.698989346  -1.709530986
Ti      -1.705085824  -1.697693266  -1.708234621
Ti       0.000000000   3.411846600  -3.401305407
Nb       0.000000000   0.000000062  -3.407224085


     NEW-OLD atomic charge density approx. for the potential
     extrapolated charge   55.41573, renormalised to   61.00000

     total cpu time spent up to now is     1880.3 secs

     Self-consistent Calculation

     iteration #  1     ecut=    50.00 Ry     beta= 0.60
     Davidson diagonalization with overlap
     c_bands:  1 eigenvalues not converged
     c_bands:  1 eigenvalues not converged
     c_bands:  2 eigenvalues not converged
     c_bands:  1 eigenvalues not converged
     c_bands:  1 eigenvalues not converged
     c_bands:  2 eigenvalues not converged
     c_bands:  1 eigenvalues not converged
     c_bands:  1 eigenvalues not converged
     c_bands:  3 eigenvalues not converged
     c_bands:  2 eigenvalues not converged
     c_bands:  1 eigenvalues not converged
     c_bands:  2 eigenvalues not converged
     c_bands:  1 eigenvalues not converged
     c_bands:  1 eigenvalues not converged
     c_bands:  1 eigenvalues not converged
     c_bands:  2 eigenvalues not converged
     c_bands:  1 eigenvalues not converged
     c_bands:  1 eigenvalues not converged
     c_bands:  1 eigenvalues not converged
     c_bands:  2 eigenvalues not converged
     c_bands:  2 eigenvalues not converged
     c_bands:  3 eigenvalues not converged
     c_bands:  1 eigenvalues not converged
     c_bands:  2 eigenvalues not converged
     c_bands:  2 eigenvalues not converged
     c_bands:  2 eigenvalues not converged
     c_bands:  1 eigenvalues not converged
     c_bands:  1 eigenvalues not converged
     c_bands:  1 eigenvalues not converged
     c_bands:  1 eigenvalues not converged
     c_bands:  2 eigenvalues not converged
     c_bands:  1 eigenvalues not converged
     c_bands:  1 eigenvalues not converged
     c_bands:  1 eigenvalues not converged
     c_bands:  2 eigenvalues not converged
     c_bands:  1 eigenvalues not converged
     c_bands:  1 eigenvalues not converged
     c_bands:  1 eigenvalues not converged
     c_bands:  4 eigenvalues not converged
     c_bands:  2 eigenvalues not converged
     c_bands:  2 eigenvalues not converged
     c_bands:  2 eigenvalues not converged
     c_bands:  3 eigenvalues not converged
     c_bands:  2 eigenvalues not converged
     c_bands:  1 eigenvalues not converged
     c_bands:  3 eigenvalues not converged
     c_bands:  1 eigenvalues not converged
     c_bands:  1 eigenvalues not converged
     c_bands:  3 eigenvalues not converged
     c_bands:  3 eigenvalues not converged
     c_bands:  1 eigenvalues not converged
     c_bands:  3 eigenvalues not converged
     c_bands:  3 eigenvalues not converged
     c_bands:  3 eigenvalues not converged
     c_bands:  2 eigenvalues not converged
     c_bands:  2 eigenvalues not converged
     c_bands:  1 eigenvalues not converged
     c_bands:  1 eigenvalues not converged
     c_bands:  1 eigenvalues not converged
     c_bands:  1 eigenvalues not converged
     c_bands:  1 eigenvalues not converged
     c_bands:  1 eigenvalues not converged
     c_bands:  2 eigenvalues not converged
     c_bands:  1 eigenvalues not converged
     c_bands:  1 eigenvalues not converged
     c_bands:  1 eigenvalues not converged
     c_bands:  2 eigenvalues not converged
     c_bands:  1 eigenvalues not converged
     c_bands:  1 eigenvalues not converged
     c_bands:  1 eigenvalues not converged
     c_bands:  2 eigenvalues not converged
     c_bands:  1 eigenvalues not converged
     c_bands:  1 eigenvalues not converged
     c_bands:  1 eigenvalues not converged
     c_bands:  2 eigenvalues not converged
     c_bands:  2 eigenvalues not converged
     c_bands:  1 eigenvalues not converged
     c_bands:  1 eigenvalues not converged
     c_bands:  1 eigenvalues not converged
     c_bands:  1 eigenvalues not converged
     c_bands:  1 eigenvalues not converged
     c_bands:  1 eigenvalues not converged
     c_bands:  1 eigenvalues not converged
     c_bands:  1 eigenvalues not converged
     c_bands:  1 eigenvalues not converged
     c_bands:  2 eigenvalues not converged
     c_bands:  1 eigenvalues not converged
     c_bands:  2 eigenvalues not converged
     c_bands:  1 eigenvalues not converged
     c_bands:  3 eigenvalues not converged
     c_bands:  2 eigenvalues not converged
     c_bands:  1 eigenvalues not converged
     c_bands:  2 eigenvalues not converged
     c_bands:  1 eigenvalues not converged
     c_bands:  1 eigenvalues not converged
     c_bands:  1 eigenvalues not converged
     c_bands:  2 eigenvalues not converged
     c_bands:  1 eigenvalues not converged
     c_bands:  1 eigenvalues not converged
     c_bands:  1 eigenvalues not converged
     c_bands:  2 eigenvalues not converged
     c_bands:  2 eigenvalues not converged
     c_bands:  3 eigenvalues not converged
     c_bands:  1 eigenvalues not converged
     c_bands:  2 eigenvalues not converged
     c_bands:  2 eigenvalues not converged
     c_bands:  1 eigenvalues not converged
     c_bands:  1 eigenvalues not converged
     c_bands:  1 eigenvalues not converged
     c_bands:  1 eigenvalues not converged
     c_bands:  2 eigenvalues not converged
     c_bands:  1 eigenvalues not converged
     c_bands:  1 eigenvalues not converged
     c_bands:  1 eigenvalues not converged
     c_bands:  2 eigenvalues not converged
     c_bands:  1 eigenvalues not converged
     c_bands:  1 eigenvalues not converged
     c_bands:  2 eigenvalues not converged
     c_bands:  4 eigenvalues not converged
     c_bands:  2 eigenvalues not converged
     c_bands:  2 eigenvalues not converged
     c_bands:  2 eigenvalues not converged
     c_bands:  3 eigenvalues not converged
     c_bands:  2 eigenvalues not converged
     c_bands:  1 eigenvalues not converged
     c_bands:  1 eigenvalues not converged
     c_bands:  3 eigenvalues not converged
     c_bands:  1 eigenvalues not converged
     c_bands:  1 eigenvalues not converged
     c_bands:  3 eigenvalues not converged
     c_bands:  3 eigenvalues not converged
     c_bands:  1 eigenvalues not converged
     c_bands:  3 eigenvalues not converged
     c_bands:  3 eigenvalues not converged
     c_bands:  3 eigenvalues not converged
     c_bands:  2 eigenvalues not converged
     c_bands:  2 eigenvalues not converged
     c_bands:  1 eigenvalues not converged
     c_bands:  1 eigenvalues not converged
     c_bands:  1 eigenvalues not converged
     c_bands:  1 eigenvalues not converged
     c_bands:  1 eigenvalues not converged
     c_bands:  1 eigenvalues not converged
     c_bands:  1 eigenvalues not converged
     c_bands:  2 eigenvalues not converged
     c_bands:  1 eigenvalues not converged
     c_bands:  1 eigenvalues not converged
     c_bands:  1 eigenvalues not converged
     c_bands:  1 eigenvalues not converged
     c_bands:  1 eigenvalues not converged
     c_bands:  1 eigenvalues not converged
     c_bands:  1 eigenvalues not converged
     c_bands:  1 eigenvalues not converged
     c_bands:  1 eigenvalues not converged
     c_bands:  2 eigenvalues not converged
     c_bands:  1 eigenvalues not converged
     c_bands:  1 eigenvalues not converged
     c_bands:  2 eigenvalues not converged
     c_bands:  2 eigenvalues not converged
     c_bands:  1 eigenvalues not converged
     c_bands:  1 eigenvalues not converged
     c_bands:  1 eigenvalues not converged
     c_bands:  1 eigenvalues not converged
     c_bands:  1 eigenvalues not converged
     ethr =  1.00E-06,  avg # of iterations = 16.9

     total cpu time spent up to now is     2098.8 secs

     total energy              =    -571.82923010 Ry
     Harris-Foulkes estimate   =    -599.65917642 Ry
     estimated scf accuracy    <      13.22091129 Ry

     iteration #  2     ecut=    50.00 Ry     beta= 0.60
     Davidson diagonalization with overlap
     ethr =  1.00E-02,  avg # of iterations =  5.0

     total cpu time spent up to now is     2202.5 secs

     total energy              =    -581.70297533 Ry
     Harris-Foulkes estimate   =    -601.60722650 Ry
     estimated scf accuracy    <      65.13804607 Ry

     iteration #  3     ecut=    50.00 Ry     beta= 0.60
     Davidson diagonalization with overlap
     ethr =  1.00E-02,  avg # of iterations =  4.3

     total cpu time spent up to now is     2280.4 secs

     total energy              =    -585.20471995 Ry
     Harris-Foulkes estimate   =    -587.20596106 Ry
     estimated scf accuracy    <       7.49342677 Ry

     iteration #  4     ecut=    50.00 Ry     beta= 0.60
     Davidson diagonalization with overlap
     ethr =  1.00E-02,  avg # of iterations =  1.9

     total cpu time spent up to now is     2332.8 secs

     total energy              =    -585.76812954 Ry
     Harris-Foulkes estimate   =    -585.66684687 Ry
     estimated scf accuracy    <       6.86769544 Ry

     iteration #  5     ecut=    50.00 Ry     beta= 0.60
     Davidson diagonalization with overlap
     ethr =  1.00E-02,  avg # of iterations =  1.0

     total cpu time spent up to now is     2381.9 secs

     total energy              =    -585.81723678 Ry
     Harris-Foulkes estimate   =    -585.82274732 Ry
     estimated scf accuracy    <       7.38787944 Ry

     iteration #  6     ecut=    50.00 Ry     beta= 0.60
     Davidson diagonalization with overlap
     ethr =  1.00E-02,  avg # of iterations =  1.0

     total cpu time spent up to now is     2431.9 secs

     total energy              =    -585.79847801 Ry
     Harris-Foulkes estimate   =    -585.83814078 Ry
     estimated scf accuracy    <       7.29822898 Ry

     iteration #  7     ecut=    50.00 Ry     beta= 0.60
     Davidson diagonalization with overlap
     ethr =  1.00E-02,  avg # of iterations =  1.0

     total cpu time spent up to now is     2482.0 secs

     total energy              =    -584.07136961 Ry
     Harris-Foulkes estimate   =    -585.80865775 Ry
     estimated scf accuracy    <       7.35623036 Ry

     iteration #  8     ecut=    50.00 Ry     beta= 0.60
     Davidson diagonalization with overlap
     ethr =  1.00E-02,  avg # of iterations =  1.9

     total cpu time spent up to now is     2534.1 secs

     total energy              =    -584.37741490 Ry
     Harris-Foulkes estimate   =    -584.36824443 Ry
     estimated scf accuracy    <       1.82261229 Ry

     iteration #  9     ecut=    50.00 Ry     beta= 0.60
     Davidson diagonalization with overlap
     ethr =  2.99E-03,  avg # of iterations =  3.1

     total cpu time spent up to now is     2593.6 secs

     total energy              =    -584.44714664 Ry
     Harris-Foulkes estimate   =    -584.50910086 Ry
     estimated scf accuracy    <       1.27658247 Ry

     iteration # 10     ecut=    50.00 Ry     beta= 0.60
     Davidson diagonalization with overlap
     ethr =  2.09E-03,  avg # of iterations =  1.8

     total cpu time spent up to now is     2645.1 secs

     total energy              =    -584.32987983 Ry
     Harris-Foulkes estimate   =    -584.47552116 Ry
     estimated scf accuracy    <       0.54940095 Ry

     iteration # 11     ecut=    50.00 Ry     beta= 0.60
     Davidson diagonalization with overlap
     ethr =  9.01E-04,  avg # of iterations =  5.8

     total cpu time spent up to now is     2729.9 secs

     total energy              =    -584.44671196 Ry
     Harris-Foulkes estimate   =    -584.54830938 Ry
     estimated scf accuracy    <       0.60850013 Ry

     iteration # 12     ecut=    50.00 Ry     beta= 0.60
     Davidson diagonalization with overlap
     ethr =  9.01E-04,  avg # of iterations =  1.1

     total cpu time spent up to now is     2779.6 secs

     total energy              =    -584.41229702 Ry
     Harris-Foulkes estimate   =    -584.46933370 Ry
     estimated scf accuracy    <       0.14798481 Ry

     iteration # 13     ecut=    50.00 Ry     beta= 0.60
     Davidson diagonalization with overlap
     ethr =  2.43E-04,  avg # of iterations =  6.0

     total cpu time spent up to now is     2869.2 secs

     total energy              =    -584.50220124 Ry
     Harris-Foulkes estimate   =    -584.51578389 Ry
     estimated scf accuracy    <       0.27084654 Ry

     iteration # 14     ecut=    50.00 Ry     beta= 0.60
     Davidson diagonalization with overlap
     ethr =  2.43E-04,  avg # of iterations =  1.0

     total cpu time spent up to now is     2919.0 secs

     total energy              =    -584.43999053 Ry
     Harris-Foulkes estimate   =    -584.50362306 Ry
     estimated scf accuracy    <       0.23381833 Ry

     iteration # 15     ecut=    50.00 Ry     beta= 0.60
     Davidson diagonalization with overlap
     ethr =  2.43E-04,  avg # of iterations =  4.0

     total cpu time spent up to now is     2987.7 secs

     total energy              =    -584.47877222 Ry
     Harris-Foulkes estimate   =    -584.47816543 Ry
     estimated scf accuracy    <       0.02783312 Ry

     iteration # 16     ecut=    50.00 Ry     beta= 0.60
     Davidson diagonalization with overlap
     c_bands:  1 eigenvalues not converged
     c_bands:  1 eigenvalues not converged
     c_bands:  1 eigenvalues not converged
     c_bands:  1 eigenvalues not converged
     ethr =  4.56E-05,  avg # of iterations =  5.0

     total cpu time spent up to now is     3050.6 secs

     total energy              =    -584.47535084 Ry
     Harris-Foulkes estimate   =    -584.48009587 Ry
     estimated scf accuracy    <       0.03000555 Ry

     iteration # 17     ecut=    50.00 Ry     beta= 0.60
     Davidson diagonalization with overlap
     ethr =  4.56E-05,  avg # of iterations =  1.0

     total cpu time spent up to now is     3100.2 secs

     total energy              =    -584.47555679 Ry
     Harris-Foulkes estimate   =    -584.47630310 Ry
     estimated scf accuracy    <       0.00893859 Ry

     iteration # 18     ecut=    50.00 Ry     beta= 0.60
     Davidson diagonalization with overlap
     c_bands:  1 eigenvalues not converged
     ethr =  1.47E-05,  avg # of iterations =  4.3

     total cpu time spent up to now is     3164.8 secs

     total energy              =    -584.47625987 Ry
     Harris-Foulkes estimate   =    -584.47635440 Ry
     estimated scf accuracy    <       0.00300973 Ry

     iteration # 19     ecut=    50.00 Ry     beta= 0.60
     Davidson diagonalization with overlap
     c_bands:  1 eigenvalues not converged
     c_bands:  1 eigenvalues not converged
     c_bands:  1 eigenvalues not converged
     c_bands:  1 eigenvalues not converged
     c_bands:  1 eigenvalues not converged
     c_bands:  1 eigenvalues not converged
     c_bands:  1 eigenvalues not converged
     c_bands:  1 eigenvalues not converged
     c_bands:  1 eigenvalues not converged
     c_bands:  1 eigenvalues not converged
     c_bands:  1 eigenvalues not converged
     c_bands:  1 eigenvalues not converged
     c_bands:  1 eigenvalues not converged
     c_bands:  1 eigenvalues not converged
     c_bands:  1 eigenvalues not converged
     c_bands:  1 eigenvalues not converged
     c_bands:  2 eigenvalues not converged
     c_bands:  1 eigenvalues not converged
     c_bands:  1 eigenvalues not converged
     c_bands:  1 eigenvalues not converged
     c_bands:  1 eigenvalues not converged
     c_bands:  1 eigenvalues not converged
     c_bands:  1 eigenvalues not converged
     c_bands:  1 eigenvalues not converged
     c_bands:  1 eigenvalues not converged
     c_bands:  1 eigenvalues not converged
     c_bands:  1 eigenvalues not converged
     c_bands:  1 eigenvalues not converged
     c_bands:  1 eigenvalues not converged
     c_bands:  1 eigenvalues not converged
     c_bands:  1 eigenvalues not converged
     c_bands:  1 eigenvalues not converged
     c_bands:  1 eigenvalues not converged
     c_bands:  1 eigenvalues not converged
     c_bands:  1 eigenvalues not converged
     c_bands:  2 eigenvalues not converged
     c_bands:  1 eigenvalues not converged
     c_bands:  1 eigenvalues not converged
     ethr =  4.93E-06,  avg # of iterations =  8.6

     total cpu time spent up to now is     3236.5 secs

     total energy              =    -584.47612403 Ry
     Harris-Foulkes estimate   =    -584.47640507 Ry
     estimated scf accuracy    <       0.00208646 Ry

     iteration # 20     ecut=    50.00 Ry     beta= 0.60
     Davidson diagonalization with overlap
     c_bands:  1 eigenvalues not converged
     c_bands:  1 eigenvalues not converged
     c_bands:  1 eigenvalues not converged
     c_bands:  1 eigenvalues not converged
     c_bands:  1 eigenvalues not converged
     ethr =  3.42E-06,  avg # of iterations =  3.8

     total cpu time spent up to now is     3295.2 secs

     total energy              =    -584.47624774 Ry
     Harris-Foulkes estimate   =    -584.47629386 Ry
     estimated scf accuracy    <       0.00053542 Ry

     iteration # 21     ecut=    50.00 Ry     beta= 0.60
     Davidson diagonalization with overlap
     c_bands:  1 eigenvalues not converged
     c_bands:  1 eigenvalues not converged
     c_bands:  1 eigenvalues not converged
     c_bands:  1 eigenvalues not converged
     ethr =  8.78E-07,  avg # of iterations =  5.3

     total cpu time spent up to now is     3365.0 secs

     total energy              =    -584.47629647 Ry
     Harris-Foulkes estimate   =    -584.47634035 Ry
     estimated scf accuracy    <       0.00035828 Ry

     iteration # 22     ecut=    50.00 Ry     beta= 0.60
     Davidson diagonalization with overlap
     ethr =  5.87E-07,  avg # of iterations =  1.1

     total cpu time spent up to now is     3414.8 secs

     total energy              =    -584.47629508 Ry
     Harris-Foulkes estimate   =    -584.47631236 Ry
     estimated scf accuracy    <       0.00012436 Ry

     iteration # 23     ecut=    50.00 Ry     beta= 0.60
     Davidson diagonalization with overlap
     ethr =  2.04E-07,  avg # of iterations =  3.6

     total cpu time spent up to now is     3477.6 secs

     total energy              =    -584.47630447 Ry
     Harris-Foulkes estimate   =    -584.47630644 Ry
     estimated scf accuracy    <       0.00002209 Ry

     iteration # 24     ecut=    50.00 Ry     beta= 0.60
     Davidson diagonalization with overlap
     c_bands:  1 eigenvalues not converged
     ethr =  3.62E-08,  avg # of iterations =  3.8

     total cpu time spent up to now is     3540.5 secs

     total energy              =    -584.47630603 Ry
     Harris-Foulkes estimate   =    -584.47630665 Ry
     estimated scf accuracy    <       0.00000513 Ry

     iteration # 25     ecut=    50.00 Ry     beta= 0.60
     Davidson diagonalization with overlap
     c_bands:  1 eigenvalues not converged
     ethr =  8.40E-09,  avg # of iterations =  3.8

     total cpu time spent up to now is     3605.0 secs

     total energy              =    -584.47630642 Ry
     Harris-Foulkes estimate   =    -584.47630668 Ry
     estimated scf accuracy    <       0.00000158 Ry

     iteration # 26     ecut=    50.00 Ry     beta= 0.60
     Davidson diagonalization with overlap
     ethr =  2.59E-09,  avg # of iterations =  3.7

     total cpu time spent up to now is     3668.9 secs

     total energy              =    -584.47630660 Ry
     Harris-Foulkes estimate   =    -584.47630662 Ry
     estimated scf accuracy    <       0.00000009 Ry

     iteration # 27     ecut=    50.00 Ry     beta= 0.60
     Davidson diagonalization with overlap
     ethr =  1.40E-10,  avg # of iterations =  5.5

     total cpu time spent up to now is     3751.8 secs

     total energy              =    -584.47630664 Ry
     Harris-Foulkes estimate   =    -584.47630665 Ry
     estimated scf accuracy    <       0.00000009 Ry

     iteration # 28     ecut=    50.00 Ry     beta= 0.60
     Davidson diagonalization with overlap
     ethr =  1.40E-10,  avg # of iterations =  1.0

     total cpu time spent up to now is     3801.3 secs

     total energy              =    -584.47630664 Ry
     Harris-Foulkes estimate   =    -584.47630665 Ry
     estimated scf accuracy    <       0.00000002 Ry

     iteration # 29     ecut=    50.00 Ry     beta= 0.60
     Davidson diagonalization with overlap
     ethr =  4.01E-11,  avg # of iterations =  4.0

     total cpu time spent up to now is     3870.5 secs

     total energy              =    -584.47630665 Ry
     Harris-Foulkes estimate   =    -584.47630665 Ry
     estimated scf accuracy    <       0.00000002 Ry

     iteration # 30     ecut=    50.00 Ry     beta= 0.60
     Davidson diagonalization with overlap
     ethr =  2.87E-11,  avg # of iterations =  1.2

     total cpu time spent up to now is     3920.6 secs

     total energy              =    -584.47630665 Ry
     Harris-Foulkes estimate   =    -584.47630665 Ry
     estimated scf accuracy    <          6.3E-09 Ry

     iteration # 31     ecut=    50.00 Ry     beta= 0.60
     Davidson diagonalization with overlap
     ethr =  1.04E-11,  avg # of iterations =  3.7

     total cpu time spent up to now is     3981.6 secs

     total energy              =    -584.47630665 Ry
     Harris-Foulkes estimate   =    -584.47630665 Ry
     estimated scf accuracy    <          2.0E-09 Ry

     iteration # 32     ecut=    50.00 Ry     beta= 0.60
     Davidson diagonalization with overlap
     ethr =  3.35E-12,  avg # of iterations =  3.8

     total cpu time spent up to now is     4043.8 secs

     total energy              =    -584.47630665 Ry
     Harris-Foulkes estimate   =    -584.47630665 Ry
     estimated scf accuracy    <          1.0E-10 Ry

     iteration # 33     ecut=    50.00 Ry     beta= 0.60
     Davidson diagonalization with overlap
     ethr =  1.67E-13,  avg # of iterations =  5.1

     total cpu time spent up to now is     4122.6 secs

     End of self-consistent calculation

     Number of k-points >= 100: set verbosity='high' to print the bands.

     the Fermi energy is    12.1765 ev

!    total energy              =    -584.47630665 Ry
     Harris-Foulkes estimate   =    -584.47630665 Ry
     estimated scf accuracy    <          6.2E-11 Ry

     The total energy is the sum of the following terms:

     one-electron contribution =    -208.84410663 Ry
     hartree contribution      =     121.10147660 Ry
     xc contribution           =     -76.07411458 Ry
     ewald contribution        =    -420.65818200 Ry
     smearing contrib. (-TS)   =      -0.00138004 Ry

     convergence has been achieved in  33 iterations

     Forces acting on atoms (cartesian axes, Ry/au):

     atom    1 type  2   force =     0.00000000   -0.01022319    0.00840332
     atom    2 type  2   force =     0.00000000   -0.00840290   -0.01022294
     atom    3 type  2   force =    -0.00000000    0.01022278   -0.00840298
     atom    4 type  2   force =    -0.00000000    0.00840354    0.01022279
     atom    5 type  1   force =     0.00000000   -0.00000024   -0.00000019

     Total force =     0.026467     Total SCF correction =     0.000021


     Computing stress (Cartesian axis) and pressure

          total   stress  (Ry/bohr**3)                   (kbar)     P= -126.58
  -0.00083356   0.00000000  -0.00000000       -122.62      0.00     -0.00
   0.00000000  -0.00087396   0.00000000          0.00   -128.56      0.00
   0.00000000   0.00000000  -0.00087396          0.00      0.00   -128.56


     number of scf cycles    =   2
     number of bfgs steps    =   1

     enthalpy old            =    -584.4061428666 Ry
     enthalpy new            =    -584.4763066485 Ry

     CASE: enthalpy_new < enthalpy_old

     new trust radius        =       0.2476633278 bohr
     new conv_thr            =            1.0E-10 Ry

     new unit-cell volume =    577.81015 a.u.^3 (    85.62263 Ang^3 )
     density =      5.51507 g/cm^3

CELL_PARAMETERS (alat=  1.88972599)
  -1.627294238  -4.865949161  -1.621983169
  -1.627294238   4.865949161   1.621983169
   1.627294238   1.621982752  -4.865948602

ATOMIC_POSITIONS (angstrom)
Ti      -1.627294238   1.605417115  -4.852563325
Ti      -1.627294238   1.608598122  -1.638548486
Ti      -1.627294238  -1.605417697  -1.635367705
Ti       0.000000000   3.257351074  -3.227400324
Nb      -0.000000000  -0.000000358  -3.243965965


     NEW-OLD atomic charge density approx. for the potential
     extrapolated charge   52.11283, renormalised to   61.00000

     total cpu time spent up to now is     4144.3 secs

     Self-consistent Calculation

     iteration #  1     ecut=    50.00 Ry     beta= 0.60
     Davidson diagonalization with overlap
     c_bands:  2 eigenvalues not converged
     c_bands:  1 eigenvalues not converged
     c_bands:  1 eigenvalues not converged
     c_bands:  1 eigenvalues not converged
     c_bands:  2 eigenvalues not converged
     c_bands:  2 eigenvalues not converged
     c_bands:  1 eigenvalues not converged
     c_bands:  1 eigenvalues not converged
     c_bands:  1 eigenvalues not converged
     c_bands:  1 eigenvalues not converged
     c_bands:  1 eigenvalues not converged
     ethr =  1.00E-06,  avg # of iterations = 17.0

     total cpu time spent up to now is     4379.3 secs

     total energy              =    -561.74005604 Ry
     Harris-Foulkes estimate   =    -606.63364098 Ry
     estimated scf accuracy    <      23.82724705 Ry

     iteration #  2     ecut=    50.00 Ry     beta= 0.60
     Davidson diagonalization with overlap
     ethr =  1.00E-02,  avg # of iterations =  5.3

     total cpu time spent up to now is     4489.4 secs

     total energy              =    -580.49693237 Ry
     Harris-Foulkes estimate   =    -610.14656351 Ry
     estimated scf accuracy    <      88.45953694 Ry

     iteration #  3     ecut=    50.00 Ry     beta= 0.60
     Davidson diagonalization with overlap
     ethr =  1.00E-02,  avg # of iterations =  4.8

     total cpu time spent up to now is     4580.1 secs

     total energy              =    -585.84660261 Ry
     Harris-Foulkes estimate   =    -588.62139673 Ry
     estimated scf accuracy    <      10.21659034 Ry

     iteration #  4     ecut=    50.00 Ry     beta= 0.60
     Davidson diagonalization with overlap
     ethr =  1.00E-02,  avg # of iterations =  1.9

     total cpu time spent up to now is     4632.3 secs

     total energy              =    -585.55065939 Ry
     Harris-Foulkes estimate   =    -586.41384365 Ry
     estimated scf accuracy    <       8.51594263 Ry

     iteration #  5     ecut=    50.00 Ry     beta= 0.60
     Davidson diagonalization with overlap
     ethr =  1.00E-02,  avg # of iterations =  1.0

     total cpu time spent up to now is     4681.3 secs

     total energy              =    -584.71459895 Ry
     Harris-Foulkes estimate   =    -585.67416660 Ry
     estimated scf accuracy    <       6.00709341 Ry

     iteration #  6     ecut=    50.00 Ry     beta= 0.60
     Davidson diagonalization with overlap
     ethr =  9.85E-03,  avg # of iterations =  1.0

     total cpu time spent up to now is     4731.1 secs

     total energy              =    -584.68478322 Ry
     Harris-Foulkes estimate   =    -584.85450225 Ry
     estimated scf accuracy    <       2.43433609 Ry

     iteration #  7     ecut=    50.00 Ry     beta= 0.60
     Davidson diagonalization with overlap
     ethr =  3.99E-03,  avg # of iterations =  1.9

     total cpu time spent up to now is     4784.6 secs

     total energy              =    -584.63448950 Ry
     Harris-Foulkes estimate   =    -584.76326438 Ry
     estimated scf accuracy    <       1.42969962 Ry

     iteration #  8     ecut=    50.00 Ry     beta= 0.60
     Davidson diagonalization with overlap
     ethr =  2.34E-03,  avg # of iterations =  1.3

     total cpu time spent up to now is     4834.4 secs

     total energy              =    -584.86519986 Ry
     Harris-Foulkes estimate   =    -584.66183722 Ry
     estimated scf accuracy    <       0.95189087 Ry

     iteration #  9     ecut=    50.00 Ry     beta= 0.60
     Davidson diagonalization with overlap
     ethr =  1.56E-03,  avg # of iterations =  1.0

     total cpu time spent up to now is     4883.7 secs

     total energy              =    -584.65339743 Ry
     Harris-Foulkes estimate   =    -584.92169189 Ry
     estimated scf accuracy    <       2.39826652 Ry

     iteration # 10     ecut=    50.00 Ry     beta= 0.60
     Davidson diagonalization with overlap
     ethr =  1.56E-03,  avg # of iterations =  1.0

     total cpu time spent up to now is     4932.9 secs

     total energy              =    -584.27220452 Ry
     Harris-Foulkes estimate   =    -584.67788572 Ry
     estimated scf accuracy    <       1.36791674 Ry

     iteration # 11     ecut=    50.00 Ry     beta= 0.60
     Davidson diagonalization with overlap
     ethr =  1.56E-03,  avg # of iterations =  4.2

     total cpu time spent up to now is     5003.4 secs

     total energy              =    -584.51010917 Ry
     Harris-Foulkes estimate   =    -584.52178756 Ry
     estimated scf accuracy    <       0.08429319 Ry

     iteration # 12     ecut=    50.00 Ry     beta= 0.60
     Davidson diagonalization with overlap
     ethr =  1.38E-04,  avg # of iterations =  5.6

     total cpu time spent up to now is     5074.2 secs

     total energy              =    -584.51882177 Ry
     Harris-Foulkes estimate   =    -584.51887304 Ry
     estimated scf accuracy    <       0.02296737 Ry

     iteration # 13     ecut=    50.00 Ry     beta= 0.60
     Davidson diagonalization with overlap
     c_bands:  1 eigenvalues not converged
     c_bands:  1 eigenvalues not converged
     c_bands:  1 eigenvalues not converged
     c_bands:  1 eigenvalues not converged
     ethr =  3.77E-05,  avg # of iterations =  6.1

     total cpu time spent up to now is     5137.3 secs

     total energy              =    -584.51502946 Ry
     Harris-Foulkes estimate   =    -584.51967511 Ry
     estimated scf accuracy    <       0.02380058 Ry

     iteration # 14     ecut=    50.00 Ry     beta= 0.60
     Davidson diagonalization with overlap
     c_bands:  1 eigenvalues not converged
     ethr =  3.77E-05,  avg # of iterations =  3.5

     total cpu time spent up to now is     5199.0 secs

     total energy              =    -584.51733819 Ry
     Harris-Foulkes estimate   =    -584.51762165 Ry
     estimated scf accuracy    <       0.00172849 Ry

     iteration # 15     ecut=    50.00 Ry     beta= 0.60
     Davidson diagonalization with overlap
     ethr =  2.83E-06,  avg # of iterations =  8.0

     total cpu time spent up to now is     5297.0 secs

     total energy              =    -584.51818795 Ry
     Harris-Foulkes estimate   =    -584.51813853 Ry
     estimated scf accuracy    <       0.00163220 Ry

     iteration # 16     ecut=    50.00 Ry     beta= 0.60
     Davidson diagonalization with overlap
     ethr =  2.68E-06,  avg # of iterations =  1.0

     total cpu time spent up to now is     5346.2 secs

     total energy              =    -584.51803407 Ry
     Harris-Foulkes estimate   =    -584.51824600 Ry
     estimated scf accuracy    <       0.00252416 Ry

     iteration # 17     ecut=    50.00 Ry     beta= 0.60
     Davidson diagonalization with overlap
     ethr =  2.68E-06,  avg # of iterations =  1.0

     total cpu time spent up to now is     5395.3 secs

     total energy              =    -584.51792137 Ry
     Harris-Foulkes estimate   =    -584.51806407 Ry
     estimated scf accuracy    <       0.00161476 Ry

     iteration # 18     ecut=    50.00 Ry     beta= 0.60
     Davidson diagonalization with overlap
     ethr =  2.65E-06,  avg # of iterations =  1.0

     total cpu time spent up to now is     5444.5 secs

     total energy              =    -584.51778915 Ry
     Harris-Foulkes estimate   =    -584.51794805 Ry
     estimated scf accuracy    <       0.00083381 Ry

     iteration # 19     ecut=    50.00 Ry     beta= 0.60
     Davidson diagonalization with overlap
     ethr =  1.37E-06,  avg # of iterations =  3.1

     total cpu time spent up to now is     5507.6 secs

     total energy              =    -584.51789540 Ry
     Harris-Foulkes estimate   =    -584.51790658 Ry
     estimated scf accuracy    <       0.00006929 Ry

     iteration # 20     ecut=    50.00 Ry     beta= 0.60
     Davidson diagonalization with overlap
     ethr =  1.14E-07,  avg # of iterations =  4.2

     total cpu time spent up to now is     5577.9 secs

     total energy              =    -584.51788604 Ry
     Harris-Foulkes estimate   =    -584.51792112 Ry
     estimated scf accuracy    <       0.00028732 Ry

     iteration # 21     ecut=    50.00 Ry     beta= 0.60
     Davidson diagonalization with overlap
     ethr =  1.14E-07,  avg # of iterations =  3.5

     total cpu time spent up to now is     5637.0 secs

     total energy              =    -584.51788808 Ry
     Harris-Foulkes estimate   =    -584.51789840 Ry
     estimated scf accuracy    <       0.00004340 Ry

     iteration # 22     ecut=    50.00 Ry     beta= 0.60
     Davidson diagonalization with overlap
     ethr =  7.11E-08,  avg # of iterations =  3.8

     total cpu time spent up to now is     5703.2 secs

     total energy              =    -584.51789593 Ry
     Harris-Foulkes estimate   =    -584.51789721 Ry
     estimated scf accuracy    <       0.00001058 Ry

     iteration # 23     ecut=    50.00 Ry     beta= 0.60
     Davidson diagonalization with overlap
     ethr =  1.74E-08,  avg # of iterations =  1.7

     total cpu time spent up to now is     5754.3 secs

     total energy              =    -584.51789606 Ry
     Harris-Foulkes estimate   =    -584.51789647 Ry
     estimated scf accuracy    <       0.00000298 Ry

     iteration # 24     ecut=    50.00 Ry     beta= 0.60
     Davidson diagonalization with overlap
     ethr =  4.88E-09,  avg # of iterations =  3.5

     total cpu time spent up to now is     5817.6 secs

     total energy              =    -584.51789641 Ry
     Harris-Foulkes estimate   =    -584.51789645 Ry
     estimated scf accuracy    <       0.00000018 Ry

     iteration # 25     ecut=    50.00 Ry     beta= 0.60
     Davidson diagonalization with overlap
     ethr =  2.88E-10,  avg # of iterations =  4.2

     total cpu time spent up to now is     5885.6 secs

     total energy              =    -584.51789645 Ry
     Harris-Foulkes estimate   =    -584.51789645 Ry
     estimated scf accuracy    <       0.00000002 Ry

     iteration # 26     ecut=    50.00 Ry     beta= 0.60
     Davidson diagonalization with overlap
     ethr =  2.69E-11,  avg # of iterations =  3.9

     total cpu time spent up to now is     5953.0 secs

     total energy              =    -584.51789645 Ry
     Harris-Foulkes estimate   =    -584.51789645 Ry
     estimated scf accuracy    <          6.5E-09 Ry

     iteration # 27     ecut=    50.00 Ry     beta= 0.60
     Davidson diagonalization with overlap
     ethr =  1.07E-11,  avg # of iterations =  2.3

     total cpu time spent up to now is     6007.6 secs

     total energy              =    -584.51789645 Ry
     Harris-Foulkes estimate   =    -584.51789645 Ry
     estimated scf accuracy    <          2.4E-09 Ry

     iteration # 28     ecut=    50.00 Ry     beta= 0.60
     Davidson diagonalization with overlap
     ethr =  3.92E-12,  avg # of iterations =  2.4

     total cpu time spent up to now is     6062.7 secs

     total energy              =    -584.51789645 Ry
     Harris-Foulkes estimate   =    -584.51789645 Ry
     estimated scf accuracy    <          5.2E-10 Ry

     iteration # 29     ecut=    50.00 Ry     beta= 0.60
     Davidson diagonalization with overlap
     ethr =  8.52E-13,  avg # of iterations =  4.2

     total cpu time spent up to now is     6134.2 secs

     total energy              =    -584.51789645 Ry
     Harris-Foulkes estimate   =    -584.51789645 Ry
     estimated scf accuracy    <          2.8E-10 Ry

     iteration # 30     ecut=    50.00 Ry     beta= 0.60
     Davidson diagonalization with overlap
     ethr =  4.66E-13,  avg # of iterations =  2.9

     total cpu time spent up to now is     6188.4 secs

     total energy              =    -584.51789645 Ry
     Harris-Foulkes estimate   =    -584.51789645 Ry
     estimated scf accuracy    <          2.0E-10 Ry

     iteration # 31     ecut=    50.00 Ry     beta= 0.60
     Davidson diagonalization with overlap
     ethr =  3.21E-13,  avg # of iterations =  1.2

     total cpu time spent up to now is     6238.0 secs

     End of self-consistent calculation

     Number of k-points >= 100: set verbosity='high' to print the bands.

     the Fermi energy is    14.4727 ev

!    total energy              =    -584.51789645 Ry
     Harris-Foulkes estimate   =    -584.51789645 Ry
     estimated scf accuracy    <          9.8E-12 Ry

     The total energy is the sum of the following terms:

     one-electron contribution =    -178.17613961 Ry
     hartree contribution      =     111.67827731 Ry
     xc contribution           =     -76.65640018 Ry
     ewald contribution        =    -441.36307227 Ry
     smearing contrib. (-TS)   =      -0.00056170 Ry

     convergence has been achieved in  31 iterations

     Forces acting on atoms (cartesian axes, Ry/au):

     atom    1 type  2   force =     0.00000000   -0.00478744    0.00619041
     atom    2 type  2   force =     0.00000000   -0.00619069   -0.00478685
     atom    3 type  2   force =    -0.00000000    0.00478708   -0.00619036
     atom    4 type  2   force =    -0.00000000    0.00619079    0.00478708
     atom    5 type  1   force =    -0.00000000    0.00000026   -0.00000028

     Total force =     0.015651     Total SCF correction =     0.000007


     Computing stress (Cartesian axis) and pressure

          total   stress  (Ry/bohr**3)                   (kbar)     P=   10.39
   0.00010493  -0.00000000   0.00000000         15.44     -0.00      0.00
  -0.00000000   0.00005344  -0.00000000         -0.00      7.86     -0.00
   0.00000000  -0.00000000   0.00005344          0.00     -0.00      7.86


     number of scf cycles    =   3
     number of bfgs steps    =   2

     enthalpy old            =    -584.4763066485 Ry
     enthalpy new            =    -584.5178964541 Ry

     CASE: enthalpy_new < enthalpy_old

     new trust radius        =       0.0177588395 bohr
     new conv_thr            =            1.0E-10 Ry

     new unit-cell volume =    583.04010 a.u.^3 (    86.39763 Ang^3 )
     density =      5.46560 g/cm^3

CELL_PARAMETERS (alat=  1.88972599)
  -1.633305396  -4.878918324  -1.626306011
  -1.633305396   4.878918324   1.626306011
   1.633305396   1.626305981  -4.878917651

ATOMIC_POSITIONS (angstrom)
Ti      -1.633305396   1.607994420  -4.863140191
Ti      -1.633305396   1.610528931  -1.644617221
Ti      -1.633305396  -1.607994932  -1.642082822
Ti       0.000000000   3.268389659  -3.234300645
Nb      -0.000000000  -0.000000136  -3.252612074


     NEW-OLD atomic charge density approx. for the potential
     extrapolated charge   61.51127, renormalised to   61.00000

     total cpu time spent up to now is     6259.9 secs

     Self-consistent Calculation

     iteration #  1     ecut=    50.00 Ry     beta= 0.60
     Davidson diagonalization with overlap
     ethr =  1.00E-06,  avg # of iterations =  5.9

     total cpu time spent up to now is     6378.2 secs

     total energy              =    -584.48325524 Ry
     Harris-Foulkes estimate   =    -583.43412189 Ry
     estimated scf accuracy    <       0.03069709 Ry

     iteration #  2     ecut=    50.00 Ry     beta= 0.60
     Davidson diagonalization with overlap
     ethr =  5.03E-05,  avg # of iterations =  5.0

     total cpu time spent up to now is     6478.0 secs

     total energy              =    -584.48393076 Ry
     Harris-Foulkes estimate   =    -584.56486119 Ry
     estimated scf accuracy    <       0.39685989 Ry

     iteration #  3     ecut=    50.00 Ry     beta= 0.60
     Davidson diagonalization with overlap
     ethr =  5.03E-05,  avg # of iterations =  4.3

     total cpu time spent up to now is     6557.9 secs

     total energy              =    -584.51443156 Ry
     Harris-Foulkes estimate   =    -584.52884198 Ry
     estimated scf accuracy    <       0.06051918 Ry

     iteration #  4     ecut=    50.00 Ry     beta= 0.60
     Davidson diagonalization with overlap
     ethr =  5.03E-05,  avg # of iterations =  3.1

     total cpu time spent up to now is     6619.1 secs

     total energy              =    -584.51865003 Ry
     Harris-Foulkes estimate   =    -584.52005971 Ry
     estimated scf accuracy    <       0.00721731 Ry

     iteration #  5     ecut=    50.00 Ry     beta= 0.60
     Davidson diagonalization with overlap
     ethr =  1.18E-05,  avg # of iterations =  2.2

     total cpu time spent up to now is     6673.1 secs

     total energy              =    -584.51830215 Ry
     Harris-Foulkes estimate   =    -584.51902655 Ry
     estimated scf accuracy    <       0.00374450 Ry

     iteration #  6     ecut=    50.00 Ry     beta= 0.60
     Davidson diagonalization with overlap
     ethr =  6.14E-06,  avg # of iterations =  2.1

     total cpu time spent up to now is     6726.5 secs

     total energy              =    -584.51832131 Ry
     Harris-Foulkes estimate   =    -584.51850848 Ry
     estimated scf accuracy    <       0.00159958 Ry

     iteration #  7     ecut=    50.00 Ry     beta= 0.60
     Davidson diagonalization with overlap
     c_bands:  1 eigenvalues not converged
     ethr =  2.62E-06,  avg # of iterations =  2.8

     total cpu time spent up to now is     6781.2 secs

     total energy              =    -584.51828780 Ry
     Harris-Foulkes estimate   =    -584.51839647 Ry
     estimated scf accuracy    <       0.00091631 Ry

     iteration #  8     ecut=    50.00 Ry     beta= 0.60
     Davidson diagonalization with overlap
     ethr =  1.50E-06,  avg # of iterations =  1.8

     total cpu time spent up to now is     6831.7 secs

     total energy              =    -584.51825801 Ry
     Harris-Foulkes estimate   =    -584.51831808 Ry
     estimated scf accuracy    <       0.00048469 Ry

     iteration #  9     ecut=    50.00 Ry     beta= 0.60
     Davidson diagonalization with overlap
     ethr =  7.95E-07,  avg # of iterations =  2.7

     total cpu time spent up to now is     6885.3 secs

     total energy              =    -584.51826151 Ry
     Harris-Foulkes estimate   =    -584.51828530 Ry
     estimated scf accuracy    <       0.00017645 Ry

     iteration # 10     ecut=    50.00 Ry     beta= 0.60
     Davidson diagonalization with overlap
     ethr =  2.89E-07,  avg # of iterations =  3.1

     total cpu time spent up to now is     6942.0 secs

     total energy              =    -584.51825154 Ry
     Harris-Foulkes estimate   =    -584.51827418 Ry
     estimated scf accuracy    <       0.00005802 Ry

     iteration # 11     ecut=    50.00 Ry     beta= 0.60
     Davidson diagonalization with overlap
     ethr =  9.51E-08,  avg # of iterations =  4.1

     total cpu time spent up to now is     7010.2 secs

     total energy              =    -584.51826801 Ry
     Harris-Foulkes estimate   =    -584.51826903 Ry
     estimated scf accuracy    <       0.00001796 Ry

     iteration # 12     ecut=    50.00 Ry     beta= 0.60
     Davidson diagonalization with overlap
     ethr =  2.94E-08,  avg # of iterations =  1.2

     total cpu time spent up to now is     7059.4 secs

     total energy              =    -584.51826750 Ry
     Harris-Foulkes estimate   =    -584.51826853 Ry
     estimated scf accuracy    <       0.00001147 Ry

     iteration # 13     ecut=    50.00 Ry     beta= 0.60
     Davidson diagonalization with overlap
     ethr =  1.88E-08,  avg # of iterations =  1.5

     total cpu time spent up to now is     7109.0 secs

     total energy              =    -584.51826730 Ry
     Harris-Foulkes estimate   =    -584.51826787 Ry
     estimated scf accuracy    <       0.00000412 Ry

     iteration # 14     ecut=    50.00 Ry     beta= 0.60
     Davidson diagonalization with overlap
     ethr =  6.76E-09,  avg # of iterations =  3.8

     total cpu time spent up to now is     7168.8 secs

     total energy              =    -584.51826770 Ry
     Harris-Foulkes estimate   =    -584.51826777 Ry
     estimated scf accuracy    <       0.00000028 Ry

     iteration # 15     ecut=    50.00 Ry     beta= 0.60
     Davidson diagonalization with overlap
     ethr =  4.54E-10,  avg # of iterations =  4.8

     total cpu time spent up to now is     7244.1 secs

     total energy              =    -584.51826773 Ry
     Harris-Foulkes estimate   =    -584.51826785 Ry
     estimated scf accuracy    <       0.00000083 Ry

     iteration # 16     ecut=    50.00 Ry     beta= 0.60
     Davidson diagonalization with overlap
     ethr =  4.54E-10,  avg # of iterations =  3.2

     total cpu time spent up to now is     7301.8 secs

     total energy              =    -584.51826776 Ry
     Harris-Foulkes estimate   =    -584.51826777 Ry
     estimated scf accuracy    <       0.00000007 Ry

     iteration # 17     ecut=    50.00 Ry     beta= 0.60
     Davidson diagonalization with overlap
     ethr =  1.12E-10,  avg # of iterations =  3.9

     total cpu time spent up to now is     7365.3 secs

     total energy              =    -584.51826777 Ry
     Harris-Foulkes estimate   =    -584.51826777 Ry
     estimated scf accuracy    <       0.00000002 Ry

     iteration # 18     ecut=    50.00 Ry     beta= 0.60
     Davidson diagonalization with overlap
     ethr =  3.02E-11,  avg # of iterations =  2.0

     total cpu time spent up to now is     7417.7 secs

     total energy              =    -584.51826776 Ry
     Harris-Foulkes estimate   =    -584.51826777 Ry
     estimated scf accuracy    <       0.00000002 Ry

     iteration # 19     ecut=    50.00 Ry     beta= 0.60
     Davidson diagonalization with overlap
     ethr =  3.02E-11,  avg # of iterations =  2.5

     total cpu time spent up to now is     7469.9 secs

     total energy              =    -584.51826777 Ry
     Harris-Foulkes estimate   =    -584.51826777 Ry
     estimated scf accuracy    <          1.4E-09 Ry

     iteration # 20     ecut=    50.00 Ry     beta= 0.60
     Davidson diagonalization with overlap
     ethr =  2.31E-12,  avg # of iterations =  4.3

     total cpu time spent up to now is     7539.0 secs

     total energy              =    -584.51826777 Ry
     Harris-Foulkes estimate   =    -584.51826777 Ry
     estimated scf accuracy    <          5.0E-10 Ry

     iteration # 21     ecut=    50.00 Ry     beta= 0.60
     Davidson diagonalization with overlap
     ethr =  8.22E-13,  avg # of iterations =  3.3

     total cpu time spent up to now is     7596.0 secs

     total energy              =    -584.51826777 Ry
     Harris-Foulkes estimate   =    -584.51826777 Ry
     estimated scf accuracy    <          6.4E-10 Ry

     iteration # 22     ecut=    50.00 Ry     beta= 0.60
     Davidson diagonalization with overlap
     ethr =  8.22E-13,  avg # of iterations =  1.0

     total cpu time spent up to now is     7644.0 secs

     total energy              =    -584.51826777 Ry
     Harris-Foulkes estimate   =    -584.51826777 Ry
     estimated scf accuracy    <          3.3E-10 Ry

     iteration # 23     ecut=    50.00 Ry     beta= 0.60
     Davidson diagonalization with overlap
     ethr =  5.37E-13,  avg # of iterations =  3.1

     total cpu time spent up to now is     7700.4 secs

     End of self-consistent calculation

     Number of k-points >= 100: set verbosity='high' to print the bands.

     the Fermi energy is    14.3196 ev

!    total energy              =    -584.51826777 Ry
     Harris-Foulkes estimate   =    -584.51826777 Ry
     estimated scf accuracy    <          1.5E-11 Ry

     The total energy is the sum of the following terms:

     one-electron contribution =    -180.17181480 Ry
     hartree contribution      =     112.28752064 Ry
     xc contribution           =     -76.61824939 Ry
     ewald contribution        =    -440.01516493 Ry
     smearing contrib. (-TS)   =      -0.00055929 Ry

     convergence has been achieved in  23 iterations

     Forces acting on atoms (cartesian axes, Ry/au):

     atom    1 type  2   force =     0.00000000   -0.00475660    0.00606728
     atom    2 type  2   force =     0.00000000   -0.00606731   -0.00475696
     atom    3 type  2   force =    -0.00000000    0.00475683   -0.00606740
     atom    4 type  2   force =    -0.00000000    0.00606694    0.00475674
     atom    5 type  1   force =    -0.00000000    0.00000014    0.00000034

     Total force =     0.015419     Total SCF correction =     0.000010


     Computing stress (Cartesian axis) and pressure

          total   stress  (Ry/bohr**3)                   (kbar)     P=   -0.12
   0.00003240   0.00000000  -0.00000000          4.77      0.00     -0.00
   0.00000000  -0.00001747   0.00000000          0.00     -2.57      0.00
   0.00000000   0.00000000  -0.00001746          0.00      0.00     -2.57


     number of scf cycles    =   4
     number of bfgs steps    =   3

     enthalpy old            =    -584.5178964541 Ry
     enthalpy new            =    -584.5182677664 Ry

     CASE: enthalpy_new < enthalpy_old

     new trust radius        =       0.0148921901 bohr
     new conv_thr            =            1.0E-10 Ry

     new unit-cell volume =    585.54696 a.u.^3 (    86.76911 Ang^3 )
     density =      5.44220 g/cm^3

CELL_PARAMETERS (alat=  1.88972599)
  -1.638342104  -4.881874093  -1.627291566
  -1.638342104   4.881874093   1.627291566
   1.638342104   1.627291155  -4.881874071

ATOMIC_POSITIONS (angstrom)
Ti      -1.638342104   1.604399420  -4.860191475
Ti      -1.638342104   1.605608910  -1.650182927
Ti      -1.638342104  -1.604399979  -1.648973529
Ti       0.000000000   3.276265122  -3.231691395
Nb      -0.000000000  -0.000000009  -3.254582886


     NEW-OLD atomic charge density approx. for the potential
     extrapolated charge   61.24402, renormalised to   61.00000

     total cpu time spent up to now is     7721.7 secs

     Self-consistent Calculation

     iteration #  1     ecut=    50.00 Ry     beta= 0.60
     Davidson diagonalization with overlap
     ethr =  1.00E-06,  avg # of iterations =  5.9

     total cpu time spent up to now is     7836.1 secs

     total energy              =    -584.50559580 Ry
     Harris-Foulkes estimate   =    -583.99736658 Ry
     estimated scf accuracy    <       0.01376397 Ry

     iteration #  2     ecut=    50.00 Ry     beta= 0.60
     Davidson diagonalization with overlap
     ethr =  2.26E-05,  avg # of iterations =  4.3

     total cpu time spent up to now is     7930.8 secs

     total energy              =    -584.49263804 Ry
     Harris-Foulkes estimate   =    -584.55130210 Ry
     estimated scf accuracy    <       0.35239715 Ry

     iteration #  3     ecut=    50.00 Ry     beta= 0.60
     Davidson diagonalization with overlap
     ethr =  2.26E-05,  avg # of iterations =  5.0

     total cpu time spent up to now is     8014.2 secs

     total energy              =    -584.51852508 Ry
     Harris-Foulkes estimate   =    -584.52067489 Ry
     estimated scf accuracy    <       0.00685426 Ry

     iteration #  4     ecut=    50.00 Ry     beta= 0.60
     Davidson diagonalization with overlap
     ethr =  1.12E-05,  avg # of iterations =  1.3

     total cpu time spent up to now is     8069.8 secs

     total energy              =    -584.51849015 Ry
     Harris-Foulkes estimate   =    -584.51900678 Ry
     estimated scf accuracy    <       0.00185913 Ry

     iteration #  5     ecut=    50.00 Ry     beta= 0.60
     Davidson diagonalization with overlap
     ethr =  3.05E-06,  avg # of iterations =  3.1

     total cpu time spent up to now is     8136.7 secs

     total energy              =    -584.51869032 Ry
     Harris-Foulkes estimate   =    -584.51879251 Ry
     estimated scf accuracy    <       0.00072216 Ry

     iteration #  6     ecut=    50.00 Ry     beta= 0.60
     Davidson diagonalization with overlap
     ethr =  1.18E-06,  avg # of iterations =  1.3

     total cpu time spent up to now is     8191.2 secs

     total energy              =    -584.51868214 Ry
     Harris-Foulkes estimate   =    -584.51871696 Ry
     estimated scf accuracy    <       0.00038950 Ry

     iteration #  7     ecut=    50.00 Ry     beta= 0.60
     Davidson diagonalization with overlap
     ethr =  6.39E-07,  avg # of iterations =  1.5

     total cpu time spent up to now is     8245.6 secs

     total energy              =    -584.51866187 Ry
     Harris-Foulkes estimate   =    -584.51869619 Ry
     estimated scf accuracy    <       0.00021330 Ry

     iteration #  8     ecut=    50.00 Ry     beta= 0.60
     Davidson diagonalization with overlap
     ethr =  3.50E-07,  avg # of iterations =  3.2

     total cpu time spent up to now is     8309.7 secs

     total energy              =    -584.51867582 Ry
     Harris-Foulkes estimate   =    -584.51867823 Ry
     estimated scf accuracy    <       0.00004075 Ry

     iteration #  9     ecut=    50.00 Ry     beta= 0.60
     Davidson diagonalization with overlap
     ethr =  6.68E-08,  avg # of iterations =  3.8

     total cpu time spent up to now is     8377.1 secs

     total energy              =    -584.51868063 Ry
     Harris-Foulkes estimate   =    -584.51868187 Ry
     estimated scf accuracy    <       0.00000768 Ry

     iteration # 10     ecut=    50.00 Ry     beta= 0.60
     Davidson diagonalization with overlap
     ethr =  1.26E-08,  avg # of iterations =  3.8

     total cpu time spent up to now is     8461.2 secs

     total energy              =    -584.51868192 Ry
     Harris-Foulkes estimate   =    -584.51868201 Ry
     estimated scf accuracy    <       0.00000109 Ry

     iteration # 11     ecut=    50.00 Ry     beta= 0.60
     Davidson diagonalization with overlap
     ethr =  1.79E-09,  avg # of iterations =  4.6

     total cpu time spent up to now is     8558.0 secs

     total energy              =    -584.51868173 Ry
     Harris-Foulkes estimate   =    -584.51868250 Ry
     estimated scf accuracy    <       0.00000648 Ry

     iteration # 12     ecut=    50.00 Ry     beta= 0.60
     Davidson diagonalization with overlap
     ethr =  1.79E-09,  avg # of iterations =  3.6

     total cpu time spent up to now is     8629.2 secs

     total energy              =    -584.51868200 Ry
     Harris-Foulkes estimate   =    -584.51868204 Ry
     estimated scf accuracy    <       0.00000086 Ry

     iteration # 13     ecut=    50.00 Ry     beta= 0.60
     Davidson diagonalization with overlap
     ethr =  1.41E-09,  avg # of iterations =  1.0

     total cpu time spent up to now is     8695.9 secs

     total energy              =    -584.51868182 Ry
     Harris-Foulkes estimate   =    -584.51868203 Ry
     estimated scf accuracy    <       0.00000092 Ry

     iteration # 14     ecut=    50.00 Ry     beta= 0.60
     Davidson diagonalization with overlap
     ethr =  1.41E-09,  avg # of iterations =  2.6

     total cpu time spent up to now is     8757.2 secs

     total energy              =    -584.51868186 Ry
     Harris-Foulkes estimate   =    -584.51868189 Ry
     estimated scf accuracy    <       0.00000007 Ry

     iteration # 15     ecut=    50.00 Ry     beta= 0.60
     Davidson diagonalization with overlap
     ethr =  1.09E-10,  avg # of iterations =  4.9

     total cpu time spent up to now is     8843.2 secs

     total energy              =    -584.51868190 Ry
     Harris-Foulkes estimate   =    -584.51868192 Ry
     estimated scf accuracy    <       0.00000015 Ry

     iteration # 16     ecut=    50.00 Ry     beta= 0.60
     Davidson diagonalization with overlap
     ethr =  1.09E-10,  avg # of iterations =  2.4

     total cpu time spent up to now is     8900.8 secs

     total energy              =    -584.51868191 Ry
     Harris-Foulkes estimate   =    -584.51868191 Ry
     estimated scf accuracy    <       0.00000005 Ry

     iteration # 17     ecut=    50.00 Ry     beta= 0.60
     Davidson diagonalization with overlap
     ethr =  7.52E-11,  avg # of iterations =  1.1

     total cpu time spent up to now is     8958.4 secs

     total energy              =    -584.51868190 Ry
     Harris-Foulkes estimate   =    -584.51868191 Ry
     estimated scf accuracy    <       0.00000003 Ry

     iteration # 18     ecut=    50.00 Ry     beta= 0.60
     Davidson diagonalization with overlap
     ethr =  5.09E-11,  avg # of iterations =  3.9

     total cpu time spent up to now is     9034.7 secs

     total energy              =    -584.51868191 Ry
     Harris-Foulkes estimate   =    -584.51868191 Ry
     estimated scf accuracy    <          8.5E-09 Ry

     iteration # 19     ecut=    50.00 Ry     beta= 0.60
     Davidson diagonalization with overlap
     ethr =  1.39E-11,  avg # of iterations =  1.4

     total cpu time spent up to now is     9084.2 secs

     total energy              =    -584.51868191 Ry
     Harris-Foulkes estimate   =    -584.51868191 Ry
     estimated scf accuracy    <          4.6E-09 Ry

     iteration # 20     ecut=    50.00 Ry     beta= 0.60
     Davidson diagonalization with overlap
     ethr =  7.55E-12,  avg # of iterations =  1.9

     total cpu time spent up to now is     9145.3 secs

     total energy              =    -584.51868191 Ry
     Harris-Foulkes estimate   =    -584.51868191 Ry
     estimated scf accuracy    <          1.5E-09 Ry

     iteration # 21     ecut=    50.00 Ry     beta= 0.60
     Davidson diagonalization with overlap
     ethr =  2.41E-12,  avg # of iterations =  3.9

     total cpu time spent up to now is     9214.0 secs

     End of self-consistent calculation

     Number of k-points >= 100: set verbosity='high' to print the bands.

     the Fermi energy is    14.2449 ev

!    total energy              =    -584.51868191 Ry
     Harris-Foulkes estimate   =    -584.51868191 Ry
     estimated scf accuracy    <          4.0E-11 Ry

     The total energy is the sum of the following terms:

     one-electron contribution =    -181.23503467 Ry
     hartree contribution      =     112.63534230 Ry
     xc contribution           =     -76.60218742 Ry
     ewald contribution        =    -439.31629194 Ry
     smearing contrib. (-TS)   =      -0.00051018 Ry

     convergence has been achieved in  21 iterations

     Forces acting on atoms (cartesian axes, Ry/au):

     atom    1 type  2   force =     0.00000000   -0.00395052    0.00543494
     atom    2 type  2   force =    -0.00000000   -0.00543539   -0.00395001
     atom    3 type  2   force =    -0.00000000    0.00395074   -0.00543563
     atom    4 type  2   force =     0.00000000    0.00543532    0.00395042
     atom    5 type  1   force =     0.00000000   -0.00000015    0.00000028

     Total force =     0.013439     Total SCF correction =     0.000013


     Computing stress (Cartesian axis) and pressure

          total   stress  (Ry/bohr**3)                   (kbar)     P=   -4.55
   0.00000068   0.00000000  -0.00000000          0.10      0.00     -0.00
  -0.00000000  -0.00004670   0.00000000         -0.00     -6.87      0.00
  -0.00000000   0.00000000  -0.00004671         -0.00      0.00     -6.87


     number of scf cycles    =   5
     number of bfgs steps    =   4

     enthalpy old            =    -584.5182677664 Ry
     enthalpy new            =    -584.5186819068 Ry

     CASE: enthalpy_new < enthalpy_old

     new trust radius        =       0.0223174355 bohr
     new conv_thr            =            1.0E-10 Ry

     new unit-cell volume =    586.98100 a.u.^3 (    86.98161 Ang^3 )
     density =      5.42890 g/cm^3

CELL_PARAMETERS (alat=  1.88972599)
  -1.644073949  -4.879320901  -1.626440261
  -1.644073949   4.879320901   1.626440261
   1.644073949   1.626440099  -4.879320179

ATOMIC_POSITIONS (angstrom)
Ti      -1.644073949   1.596417672  -4.848252073
Ti      -1.644073949   1.595371879  -1.656461814
Ti      -1.644073949  -1.596418192  -1.657508188
Ti       0.000000000   3.283948835  -3.222858330
Nb      -0.000000000   0.000000103  -3.252880131


     NEW-OLD atomic charge density approx. for the potential
     extrapolated charge   61.13925, renormalised to   61.00000

     total cpu time spent up to now is     9237.9 secs

     Self-consistent Calculation

     iteration #  1     ecut=    50.00 Ry     beta= 0.60
     Davidson diagonalization with overlap
     ethr =  1.00E-06,  avg # of iterations =  6.5

     total cpu time spent up to now is     9392.2 secs

     total energy              =    -584.50701383 Ry
     Harris-Foulkes estimate   =    -584.22090583 Ry
     estimated scf accuracy    <       0.01567895 Ry

     iteration #  2     ecut=    50.00 Ry     beta= 0.60
     Davidson diagonalization with overlap
     ethr =  2.57E-05,  avg # of iterations =  5.7

     total cpu time spent up to now is     9497.3 secs

     total energy              =    -584.48370102 Ry
     Harris-Foulkes estimate   =    -584.56169787 Ry
     estimated scf accuracy    <       0.48308707 Ry

     iteration #  3     ecut=    50.00 Ry     beta= 0.60
     Davidson diagonalization with overlap
     ethr =  2.57E-05,  avg # of iterations =  5.3

     total cpu time spent up to now is     9606.1 secs

     total energy              =    -584.51916386 Ry
     Harris-Foulkes estimate   =    -584.51971273 Ry
     estimated scf accuracy    <       0.00169635 Ry

     iteration #  4     ecut=    50.00 Ry     beta= 0.60
     Davidson diagonalization with overlap
     ethr =  2.78E-06,  avg # of iterations =  2.1

     total cpu time spent up to now is     9666.2 secs

     total energy              =    -584.51908364 Ry
     Harris-Foulkes estimate   =    -584.51929743 Ry
     estimated scf accuracy    <       0.00057449 Ry

     iteration #  5     ecut=    50.00 Ry     beta= 0.60
     Davidson diagonalization with overlap
     ethr =  9.42E-07,  avg # of iterations =  3.1

     total cpu time spent up to now is     9735.9 secs

     total energy              =    -584.51920530 Ry
     Harris-Foulkes estimate   =    -584.51921676 Ry
     estimated scf accuracy    <       0.00008721 Ry

     iteration #  6     ecut=    50.00 Ry     beta= 0.60
     Davidson diagonalization with overlap
     ethr =  1.43E-07,  avg # of iterations =  3.6

[...]

     resetting bfgs history

     new conv_thr            =            5.9E-11 Ry

     new unit-cell volume =    585.06602 a.u.^3 (    86.69784 Ang^3 )
     density =      5.44667 g/cm^3

CELL_PARAMETERS (alat=  1.88972599)
  -1.670167738  -4.833152053  -1.611048400
  -1.670167738   4.833152053   1.611048400
   1.670167738   1.611052492  -4.833150624

ATOMIC_POSITIONS (angstrom)
Ti      -1.670167738   1.574155169  -4.776727401
Ti      -1.670167738   1.554629016  -1.647947414
Ti      -1.670167738  -1.574151641  -1.667471747
Ti      -0.000000000   3.278524224  -3.185205335
Nb      -0.000000000   0.000000707  -3.222099974


     NEW-OLD atomic charge density approx. for the potential
     extrapolated charge   61.01333, renormalised to   61.00000

     total cpu time spent up to now is    58583.6 secs

     Self-consistent Calculation

     iteration #  1     ecut=    50.00 Ry     beta= 0.60
     Davidson diagonalization with overlap
     ethr =  1.00E-06,  avg # of iterations =  2.0

     Threshold (ethr) on eigenvalues was too large:
     Diagonalizing with lowered threshold

     Davidson diagonalization with overlap
     ethr =  2.62E-08,  avg # of iterations =  2.0

     total cpu time spent up to now is    58704.7 secs

     total energy              =    -584.51996387 Ry
     Harris-Foulkes estimate   =    -584.49126572 Ry
     estimated scf accuracy    <       0.00001910 Ry

     iteration #  2     ecut=    50.00 Ry     beta= 0.60
     Davidson diagonalization with overlap
     ethr =  3.13E-08,  avg # of iterations =  5.0

     total cpu time spent up to now is    58813.6 secs

     total energy              =    -584.51996779 Ry
     Harris-Foulkes estimate   =    -584.52000908 Ry
     estimated scf accuracy    <       0.00018203 Ry

     iteration #  3     ecut=    50.00 Ry     beta= 0.60
     Davidson diagonalization with overlap
     ethr =  3.13E-08,  avg # of iterations =  4.4

     total cpu time spent up to now is    58906.0 secs

     total energy              =    -584.51998257 Ry
     Harris-Foulkes estimate   =    -584.51999311 Ry
     estimated scf accuracy    <       0.00004802 Ry

     iteration #  4     ecut=    50.00 Ry     beta= 0.60
     Davidson diagonalization with overlap
     ethr =  3.13E-08,  avg # of iterations =  3.3

     total cpu time spent up to now is    58973.2 secs

     total energy              =    -584.51998578 Ry
     Harris-Foulkes estimate   =    -584.51998677 Ry
     estimated scf accuracy    <       0.00000405 Ry

     iteration #  5     ecut=    50.00 Ry     beta= 0.60
     Davidson diagonalization with overlap
     ethr =  6.65E-09,  avg # of iterations =  2.4

     total cpu time spent up to now is    59032.1 secs

     total energy              =    -584.51998584 Ry
     Harris-Foulkes estimate   =    -584.51998608 Ry
     estimated scf accuracy    <       0.00000230 Ry

     iteration #  6     ecut=    50.00 Ry     beta= 0.60
     Davidson diagonalization with overlap
     ethr =  3.78E-09,  avg # of iterations =  1.3

     total cpu time spent up to now is    59084.8 secs

     total energy              =    -584.51998535 Ry
     Harris-Foulkes estimate   =    -584.51998593 Ry
     estimated scf accuracy    <       0.00000139 Ry

     iteration #  7     ecut=    50.00 Ry     beta= 0.60
     Davidson diagonalization with overlap
     ethr =  2.28E-09,  avg # of iterations =  3.0

     total cpu time spent up to now is    59158.1 secs

     total energy              =    -584.51998561 Ry
     Harris-Foulkes estimate   =    -584.51998562 Ry
     estimated scf accuracy    <       0.00000009 Ry

     iteration #  8     ecut=    50.00 Ry     beta= 0.60
     Davidson diagonalization with overlap
     ethr =  1.55E-10,  avg # of iterations =  3.4

     total cpu time spent up to now is    59230.4 secs

     total energy              =    -584.51998563 Ry
     Harris-Foulkes estimate   =    -584.51998563 Ry
     estimated scf accuracy    <       0.00000003 Ry

     iteration #  9     ecut=    50.00 Ry     beta= 0.60
     Davidson diagonalization with overlap
     ethr =  5.73E-11,  avg # of iterations =  2.4

     total cpu time spent up to now is    59284.6 secs

     total energy              =    -584.51998563 Ry
     Harris-Foulkes estimate   =    -584.51998563 Ry
     estimated scf accuracy    <       0.00000002 Ry

     iteration # 10     ecut=    50.00 Ry     beta= 0.60
     Davidson diagonalization with overlap
     ethr =  3.78E-11,  avg # of iterations =  2.6

     total cpu time spent up to now is    59341.6 secs

     total energy              =    -584.51998563 Ry
     Harris-Foulkes estimate   =    -584.51998563 Ry
     estimated scf accuracy    <          5.4E-09 Ry

     iteration # 11     ecut=    50.00 Ry     beta= 0.60
     Davidson diagonalization with overlap
     ethr =  8.89E-12,  avg # of iterations =  4.4

     total cpu time spent up to now is    59416.1 secs

     total energy              =    -584.51998563 Ry
     Harris-Foulkes estimate   =    -584.51998563 Ry
     estimated scf accuracy    <          1.5E-09 Ry

     iteration # 12     ecut=    50.00 Ry     beta= 0.60
     Davidson diagonalization with overlap
     ethr =  2.51E-12,  avg # of iterations =  1.1

     total cpu time spent up to now is    59468.2 secs

     total energy              =    -584.51998563 Ry
     Harris-Foulkes estimate   =    -584.51998563 Ry
     estimated scf accuracy    <          9.7E-10 Ry

     iteration # 13     ecut=    50.00 Ry     beta= 0.60
     Davidson diagonalization with overlap
     ethr =  1.59E-12,  avg # of iterations =  1.8

     total cpu time spent up to now is    59524.2 secs

     total energy              =    -584.51998563 Ry
     Harris-Foulkes estimate   =    -584.51998563 Ry
     estimated scf accuracy    <          2.0E-10 Ry

     iteration # 14     ecut=    50.00 Ry     beta= 0.60
     Davidson diagonalization with overlap
     ethr =  3.22E-13,  avg # of iterations =  4.2

     total cpu time spent up to now is    59602.3 secs

     total energy              =    -584.51998563 Ry
     Harris-Foulkes estimate   =    -584.51998563 Ry
     estimated scf accuracy    <          2.0E-10 Ry

     iteration # 15     ecut=    50.00 Ry     beta= 0.60
     Davidson diagonalization with overlap
     ethr =  3.22E-13,  avg # of iterations =  1.3

     total cpu time spent up to now is    59669.3 secs

     End of self-consistent calculation

     Number of k-points >= 100: set verbosity='high' to print the bands.

     the Fermi energy is    14.2503 ev

!    total energy              =    -584.51998563 Ry
     Harris-Foulkes estimate   =    -584.51998563 Ry
     estimated scf accuracy    <          2.2E-11 Ry

     The total energy is the sum of the following terms:

     one-electron contribution =    -181.79280185 Ry
     hartree contribution      =     112.94820792 Ry
     xc contribution           =     -76.61733407 Ry
     ewald contribution        =    -439.05734400 Ry
     smearing contrib. (-TS)   =      -0.00071363 Ry

     convergence has been achieved in  15 iterations

     Forces acting on atoms (cartesian axes, Ry/au):

     atom    1 type  2   force =    -0.00000000   -0.00051662   -0.00047757
     atom    2 type  2   force =     0.00000000    0.00047798   -0.00051680
     atom    3 type  2   force =     0.00000000    0.00051628    0.00047777
     atom    4 type  2   force =    -0.00000000   -0.00047774    0.00051667
     atom    5 type  1   force =     0.00000000    0.00000009   -0.00000008

     Total force =     0.001407     Total SCF correction =     0.000015


     Computing stress (Cartesian axis) and pressure

          total   stress  (Ry/bohr**3)                   (kbar)     P=    0.27
   0.00000687  -0.00000000  -0.00000000          1.01     -0.00     -0.00
  -0.00000000  -0.00000073   0.00000003         -0.00     -0.11      0.00
  -0.00000000   0.00000003  -0.00000070         -0.00      0.00     -0.10


     number of scf cycles    =  49
     number of bfgs steps    =  15

     enthalpy old            =    -584.5199906759 Ry
     enthalpy new            =    -584.5199856284 Ry

     CASE: enthalpy_new > enthalpy_old

     new trust radius        =       0.0002425057 bohr
     new conv_thr            =            5.9E-11 Ry

     new unit-cell volume =    584.92916 a.u.^3 (    86.67756 Ang^3 )
     density =      5.44795 g/cm^3

CELL_PARAMETERS (alat=  1.88972599)
  -1.669865666  -4.833022145  -1.611009360
  -1.669865666   4.833022145   1.611009360
   1.669865666   1.611006057  -4.833024106

ATOMIC_POSITIONS (angstrom)
Ti      -1.669865666   1.574353412  -4.776376676
Ti      -1.669865666   1.554360331  -1.647660300
Ti      -1.669865666  -1.574353501  -1.667654888
Ti      -0.000000000   3.278659267  -3.185364288
Nb      -0.000000000  -0.000001337  -3.222016167


     NEW-OLD atomic charge density approx. for the potential
     extrapolated charge   60.98666, renormalised to   61.00000

     total cpu time spent up to now is    59701.1 secs

     Self-consistent Calculation

     iteration #  1     ecut=    50.00 Ry     beta= 0.60
     Davidson diagonalization with overlap
     ethr =  1.00E-06,  avg # of iterations =  2.0

     Threshold (ethr) on eigenvalues was too large:
     Diagonalizing with lowered threshold

     Davidson diagonalization with overlap
     ethr =  2.62E-08,  avg # of iterations =  2.0

     total cpu time spent up to now is    59834.0 secs

     total energy              =    -584.51996768 Ry
     Harris-Foulkes estimate   =    -584.54871684 Ry
     estimated scf accuracy    <       0.00001907 Ry

     iteration #  2     ecut=    50.00 Ry     beta= 0.60
     Davidson diagonalization with overlap
     ethr =  3.13E-08,  avg # of iterations =  5.0

     total cpu time spent up to now is    59939.0 secs

     total energy              =    -584.51997181 Ry
     Harris-Foulkes estimate   =    -584.52001268 Ry
     estimated scf accuracy    <       0.00017932 Ry

     iteration #  3     ecut=    50.00 Ry     beta= 0.60
     Davidson diagonalization with overlap
     ethr =  3.13E-08,  avg # of iterations =  4.4

     total cpu time spent up to now is    60016.1 secs

     total energy              =    -584.51998635 Ry
     Harris-Foulkes estimate   =    -584.51999692 Ry
     estimated scf accuracy    <       0.00004823 Ry

     iteration #  4     ecut=    50.00 Ry     beta= 0.60
     Davidson diagonalization with overlap
     ethr =  3.13E-08,  avg # of iterations =  3.3

     total cpu time spent up to now is    60078.7 secs

     total energy              =    -584.51998953 Ry
     Harris-Foulkes estimate   =    -584.51999057 Ry
     estimated scf accuracy    <       0.00000407 Ry

     iteration #  5     ecut=    50.00 Ry     beta= 0.60
     Davidson diagonalization with overlap
     ethr =  6.67E-09,  avg # of iterations =  2.4

     total cpu time spent up to now is    60136.5 secs

     total energy              =    -584.51998957 Ry
     Harris-Foulkes estimate   =    -584.51998980 Ry
     estimated scf accuracy    <       0.00000178 Ry

     iteration #  6     ecut=    50.00 Ry     beta= 0.60
     Davidson diagonalization with overlap
     ethr =  2.92E-09,  avg # of iterations =  1.9

     total cpu time spent up to now is    60192.8 secs

     total energy              =    -584.51998920 Ry
     Harris-Foulkes estimate   =    -584.51998965 Ry
     estimated scf accuracy    <       0.00000117 Ry

     iteration #  7     ecut=    50.00 Ry     beta= 0.60
     Davidson diagonalization with overlap
     ethr =  1.92E-09,  avg # of iterations =  3.0

     total cpu time spent up to now is    60258.9 secs

     total energy              =    -584.51998941 Ry
     Harris-Foulkes estimate   =    -584.51998942 Ry
     estimated scf accuracy    <       0.00000011 Ry

     iteration #  8     ecut=    50.00 Ry     beta= 0.60
     Davidson diagonalization with overlap
     ethr =  1.77E-10,  avg # of iterations =  2.9

     total cpu time spent up to now is    60328.7 secs

     total energy              =    -584.51998942 Ry
     Harris-Foulkes estimate   =    -584.51998942 Ry
     estimated scf accuracy    <       0.00000005 Ry

     iteration #  9     ecut=    50.00 Ry     beta= 0.60
     Davidson diagonalization with overlap
     ethr =  7.39E-11,  avg # of iterations =  2.0

     total cpu time spent up to now is    60383.1 secs

     total energy              =    -584.51998942 Ry
     Harris-Foulkes estimate   =    -584.51998942 Ry
     estimated scf accuracy    <       0.00000003 Ry

     iteration # 10     ecut=    50.00 Ry     beta= 0.60
     Davidson diagonalization with overlap
     ethr =  4.93E-11,  avg # of iterations =  3.1

     total cpu time spent up to now is    60440.0 secs

     total energy              =    -584.51998942 Ry
     Harris-Foulkes estimate   =    -584.51998942 Ry
     estimated scf accuracy    <          2.9E-09 Ry

     iteration # 11     ecut=    50.00 Ry     beta= 0.60
     Davidson diagonalization with overlap
     ethr =  4.71E-12,  avg # of iterations =  5.0

     total cpu time spent up to now is    60524.5 secs

     total energy              =    -584.51998942 Ry
     Harris-Foulkes estimate   =    -584.51998942 Ry
     estimated scf accuracy    <          1.5E-09 Ry

     iteration # 12     ecut=    50.00 Ry     beta= 0.60
     Davidson diagonalization with overlap
     ethr =  2.52E-12,  avg # of iterations =  1.8

     total cpu time spent up to now is    60580.8 secs

     total energy              =    -584.51998942 Ry
     Harris-Foulkes estimate   =    -584.51998942 Ry
     estimated scf accuracy    <          2.0E-10 Ry

     iteration # 13     ecut=    50.00 Ry     beta= 0.60
     Davidson diagonalization with overlap
     ethr =  3.22E-13,  avg # of iterations =  4.1

     total cpu time spent up to now is    60652.9 secs

     total energy              =    -584.51998942 Ry
     Harris-Foulkes estimate   =    -584.51998942 Ry
     estimated scf accuracy    <          7.4E-11 Ry

     iteration # 14     ecut=    50.00 Ry     beta= 0.60
     Davidson diagonalization with overlap
     ethr =  1.22E-13,  avg # of iterations =  2.5

     total cpu time spent up to now is    60707.9 secs

     total energy              =    -584.51998942 Ry
     Harris-Foulkes estimate   =    -584.51998942 Ry
     estimated scf accuracy    <          7.7E-11 Ry

     iteration # 15     ecut=    50.00 Ry     beta= 0.60
     Davidson diagonalization with overlap
     ethr =  1.22E-13,  avg # of iterations =  1.1

     total cpu time spent up to now is    60759.0 secs

     End of self-consistent calculation

     Number of k-points >= 100: set verbosity='high' to print the bands.

     the Fermi energy is    14.2541 ev

!    total energy              =    -584.51998942 Ry
     Harris-Foulkes estimate   =    -584.51998942 Ry
     estimated scf accuracy    <          2.8E-11 Ry

     The total energy is the sum of the following terms:

     one-electron contribution =    -181.73790155 Ry
     hartree contribution      =     112.93077531 Ry
     xc contribution           =     -76.61831395 Ry
     ewald contribution        =    -439.09384048 Ry
     smearing contrib. (-TS)   =      -0.00070874 Ry

     convergence has been achieved in  15 iterations

     Forces acting on atoms (cartesian axes, Ry/au):

     atom    1 type  2   force =    -0.00000000   -0.00057257   -0.00053042
     atom    2 type  2   force =     0.00000000    0.00052989   -0.00057209
     atom    3 type  2   force =     0.00000000    0.00057247    0.00053009
     atom    4 type  2   force =    -0.00000000   -0.00052977    0.00057262
     atom    5 type  1   force =    -0.00000000   -0.00000002   -0.00000020

     Total force =     0.001560     Total SCF correction =     0.000017


     Computing stress (Cartesian axis) and pressure

          total   stress  (Ry/bohr**3)                   (kbar)     P=    0.52
   0.00000873  -0.00000000  -0.00000000          1.28     -0.00     -0.00
  -0.00000000   0.00000093  -0.00000002         -0.00      0.14     -0.00
  -0.00000000  -0.00000002   0.00000089         -0.00     -0.00      0.13


     number of scf cycles    =  50
     number of bfgs steps    =  15

     enthalpy old            =    -584.5199906759 Ry
     enthalpy new            =    -584.5199894215 Ry

     CASE: enthalpy_new > enthalpy_old

     new trust radius        =       0.0000486360 bohr

     trust_radius < trust_radius_min

     resetting bfgs history

     new conv_thr            =            5.9E-11 Ry

     new unit-cell volume =    585.06602 a.u.^3 (    86.69784 Ang^3 )
     density =      5.44667 g/cm^3

CELL_PARAMETERS (alat=  1.88972599)
  -1.670167738  -4.833152053  -1.611048400
  -1.670167738   4.833152053   1.611048400
   1.670167738   1.611052492  -4.833150624

ATOMIC_POSITIONS (angstrom)
Ti      -1.670167738   1.574155169  -4.776727401
Ti      -1.670167738   1.554629016  -1.647947414
Ti      -1.670167738  -1.574151641  -1.667471747
Ti      -0.000000000   3.278524224  -3.185205335
Nb      -0.000000000   0.000000707  -3.222099974


     NEW-OLD atomic charge density approx. for the potential
     extrapolated charge   61.01333, renormalised to   61.00000
 
     init_run     :     26.94s CPU     29.68s WALL (       1 calls)
     electrons    :  52588.46s CPU  59534.34s WALL (      50 calls)
     update_pot   :     86.43s CPU     97.25s WALL (      50 calls)
     forces       :    245.49s CPU    251.56s WALL (      50 calls)
     stress       :    721.56s CPU    739.43s WALL (      50 calls)

     Called by init_run:
     wfcinit      :     25.29s CPU     25.77s WALL (       1 calls)
     potinit      :      0.54s CPU      1.05s WALL (       1 calls)
     hinit0       :      0.95s CPU      2.59s WALL (       1 calls)

     Called by electrons:
     c_bands      :  44419.74s CPU  50815.63s WALL (     848 calls)
     sum_band     :   7916.65s CPU   8086.07s WALL (     848 calls)
     v_of_rho     :     54.99s CPU     55.49s WALL (     866 calls)
     newd         :    202.98s CPU    298.07s WALL (     866 calls)
     mix_rho      :      5.52s CPU      5.57s WALL (     848 calls)

     Called by c_bands:
     init_us_2    :    609.14s CPU    612.37s WALL (  855372 calls)
     cegterg      :  40915.96s CPU  41361.17s WALL (  403648 calls)

     Called by sum_band:
     sum_band:bec :     12.73s CPU     13.12s WALL (  403648 calls)
     addusdens    :    230.42s CPU    317.23s WALL (     848 calls)

     Called by *egterg:
     h_psi        :  31489.74s CPU  31897.89s WALL ( 1634559 calls)
     s_psi        :   1028.62s CPU   1031.52s WALL ( 1634559 calls)
     g_psi        :    204.09s CPU    207.81s WALL ( 1230435 calls)
     cdiaghg      :   4195.19s CPU   4202.87s WALL ( 1595051 calls)

     Called by h_psi:
     h_psi:pot    :  31390.20s CPU  31797.31s WALL ( 1634559 calls)
     h_psi:calbec :   1154.27s CPU   1161.50s WALL ( 1634559 calls)
     vloc_psi     :  29182.11s CPU  29575.22s WALL ( 1634559 calls)
     add_vuspsi   :   1046.97s CPU   1051.33s WALL ( 1634559 calls)

     General routines
     calbec       :   1688.77s CPU   1697.16s WALL ( 2157207 calls)
     fft          :     30.30s CPU     32.41s WALL (   12542 calls)
     ffts         :      1.04s CPU      1.04s WALL (    1714 calls)
     fftw         :  32221.62s CPU  32600.17s WALL (90499828 calls)
     interpolate  :      2.83s CPU      2.85s WALL (     866 calls)
     davcio       :      0.00s CPU      0.17s WALL (     476 calls)
 
     Parallel routines
     fft_scatt_xy :   6465.45s CPU   6571.49s WALL (90514084 calls)
     fft_scatt_yz :   5386.19s CPU   5451.57s WALL (90514084 calls)
 
     PWSCF        :    14h54m CPU       54h16m WALL

      55h
 
   This run was terminated on:   5: 7:41  25Jan2020            

=------------------------------------------------------------------------------=
   JOB DONE.
=------------------------------------------------------------------------------=
