
     Program PWSCF v.6.3MaX starts on 13Jan2020 at 13:23:20 

     This program is part of the open-source Quantum ESPRESSO suite
     for quantum simulation of materials; please cite
         "P. Giannozzi et al., J. Phys.:Condens. Matter 21 395502 (2009);
         "P. Giannozzi et al., J. Phys.:Condens. Matter 29 465901 (2017);
          URL http://www.quantum-espresso.org", 
     in publications or presentations arising from this work. More details at
     http://www.quantum-espresso.org/quote

     Parallel version (MPI), running on     1 processors

     MPI processes distributed on     1 nodes
     Waiting for input...
     Reading input from standard input

     Current dimensions of program PWSCF are:
     Max number of different atomic species (ntypx) = 10
     Max number of k-points (npk) =  40000
     Max angular momentum in pseudopotentials (lmaxx) =  3
     Message from routine iosys:
     minimal I/O required, wf_collect reset to FALSE

     Subspace diagonalization in iterative solution of the eigenvalue problem:
     a serial algorithm will be used

 
     G-vector sticks info
     --------------------
     sticks:   dense  smooth     PW     G-vecs:    dense   smooth      PW
     Sum        1247     487    181                27835     6963    1601
 


     bravais-lattice index     =            0
     lattice parameter (alat)  =       1.8897  a.u.
     unit-cell volume          =     146.6684 (a.u.)^3
     number of atoms/cell      =            1
     number of atomic types    =            1
     number of electrons       =        12.00
     number of Kohn-Sham states=           10
     kinetic-energy cutoff     =      50.0000  Ry
     charge density cutoff     =     500.0000  Ry
     convergence threshold     =      1.0E-10
     mixing beta               =       0.6000
     number of iterations used =            8  plain     mixing
     Exchange-correlation      = SLA PW PBE PBE ( 1  4  3  4 0 0)
     nstep                     =           50


     celldm(1)=   1.889726  celldm(2)=   0.000000  celldm(3)=   0.000000
     celldm(4)=   0.000000  celldm(5)=   0.000000  celldm(6)=   0.000000

     crystal axes: (cart. coord. in units of alat)
               a(1) = (   1.758031  -1.758031   1.758031 )  
               a(2) = (   1.758031   1.758031  -1.758031 )  
               a(3) = (  -1.758031   1.758031   1.758031 )  

     reciprocal axes: (cart. coord. in units 2 pi/alat)
               b(1) = (  0.284409  0.000000  0.284409 )  
               b(2) = (  0.284409  0.284409  0.000000 )  
               b(3) = (  0.000000  0.284409  0.284409 )  


     PseudoPot. # 1 for Ti read from file:
     /home/u16/abhishekkt/fp/krishna/calculations/pseudopotentials/Ti.pbe-sp-van_ak.UPF
     MD5 check sum: 84d3ec9e8983e94242673103c800fb48
     Pseudo is Ultrasoft, Zval = 12.0
     Generated by new atomic code, or converted to UPF format
     Using radial grid of  851 points,  6 beta functions with: 
                l(1) =   0
                l(2) =   0
                l(3) =   1
                l(4) =   1
                l(5) =   2
                l(6) =   2
     Q(r) pseudized with  8 coefficients,  rinner =    1.000   1.000   1.000
                                                       1.000   1.000

     atomic species   valence    mass     pseudopotential
        Ti            12.00    47.86700     Ti( 1.00)

     48 Sym. Ops., with inversion, found



   Cartesian axes

     site n.     atom                  positions (alat units)
         1           Ti  tau(   1) = (   1.7580316   1.7580316   1.7580316  )

     number of k points=   256  Marzari-Vanderbilt smearing, width (Ry)=  0.0200

     Number of k-points >= 100: set verbosity='high' to print them.

     Dense  grid:    27835 G-vectors     FFT dimensions: (  45,  45,  45)

     Smooth grid:     6963 G-vectors     FFT dimensions: (  25,  25,  25)

     Estimated max dynamical RAM per process >     138.72 MB

     Initial potential from superposition of free atoms

     starting charge   10.99996, renormalised to   12.00000
     Starting wfcs are   10 randomized atomic wfcs

     total cpu time spent up to now is        2.4 secs

     Self-consistent Calculation

     iteration #  1     ecut=    50.00 Ry     beta= 0.60
     Davidson diagonalization with overlap
     ethr =  1.00E-02,  avg # of iterations =  3.3

     total cpu time spent up to now is        8.0 secs

     total energy              =    -116.31767769 Ry
     Harris-Foulkes estimate   =    -116.93493854 Ry
     estimated scf accuracy    <       0.85757240 Ry

     iteration #  2     ecut=    50.00 Ry     beta= 0.60
     Davidson diagonalization with overlap
     ethr =  7.15E-03,  avg # of iterations =  2.9

     total cpu time spent up to now is       13.0 secs

     total energy              =    -116.52949812 Ry
     Harris-Foulkes estimate   =    -116.72808967 Ry
     estimated scf accuracy    <       0.39662205 Ry

     iteration #  3     ecut=    50.00 Ry     beta= 0.60
     Davidson diagonalization with overlap
     ethr =  3.31E-03,  avg # of iterations =  2.9

     total cpu time spent up to now is       17.1 secs

     total energy              =    -116.62124460 Ry
     Harris-Foulkes estimate   =    -116.62531209 Ry
     estimated scf accuracy    <       0.00746293 Ry

     iteration #  4     ecut=    50.00 Ry     beta= 0.60
     Davidson diagonalization with overlap
     ethr =  6.22E-05,  avg # of iterations =  3.0

     total cpu time spent up to now is       22.4 secs

     total energy              =    -116.62483090 Ry
     Harris-Foulkes estimate   =    -116.62481473 Ry
     estimated scf accuracy    <       0.00015235 Ry

     iteration #  5     ecut=    50.00 Ry     beta= 0.60
     Davidson diagonalization with overlap
     ethr =  1.27E-06,  avg # of iterations =  1.5

     total cpu time spent up to now is       26.0 secs

     total energy              =    -116.62477388 Ry
     Harris-Foulkes estimate   =    -116.62483355 Ry
     estimated scf accuracy    <       0.00015050 Ry

     iteration #  6     ecut=    50.00 Ry     beta= 0.60
     Davidson diagonalization with overlap
     ethr =  1.25E-06,  avg # of iterations =  2.7

     total cpu time spent up to now is       29.9 secs

     total energy              =    -116.62480394 Ry
     Harris-Foulkes estimate   =    -116.62480457 Ry
     estimated scf accuracy    <       0.00000220 Ry

     iteration #  7     ecut=    50.00 Ry     beta= 0.60
     Davidson diagonalization with overlap
     ethr =  1.83E-08,  avg # of iterations =  3.0

     total cpu time spent up to now is       34.7 secs

     total energy              =    -116.62480541 Ry
     Harris-Foulkes estimate   =    -116.62480539 Ry
     estimated scf accuracy    <       0.00000002 Ry

     iteration #  8     ecut=    50.00 Ry     beta= 0.60
     Davidson diagonalization with overlap
     ethr =  1.89E-10,  avg # of iterations =  2.2

     total cpu time spent up to now is       38.6 secs

     total energy              =    -116.62480541 Ry
     Harris-Foulkes estimate   =    -116.62480541 Ry
     estimated scf accuracy    <          1.2E-09 Ry

     iteration #  9     ecut=    50.00 Ry     beta= 0.60
     Davidson diagonalization with overlap
     ethr =  9.79E-12,  avg # of iterations =  2.3

     total cpu time spent up to now is       42.6 secs

     total energy              =    -116.62480541 Ry
     Harris-Foulkes estimate   =    -116.62480541 Ry
     estimated scf accuracy    <          7.7E-10 Ry

     iteration # 10     ecut=    50.00 Ry     beta= 0.60
     Davidson diagonalization with overlap
     ethr =  6.43E-12,  avg # of iterations =  2.7

     total cpu time spent up to now is       46.7 secs

     End of self-consistent calculation

     Number of k-points >= 100: set verbosity='high' to print the bands.

     the Fermi energy is     9.9591 ev

!    total energy              =    -116.62480541 Ry
     Harris-Foulkes estimate   =    -116.62480541 Ry
     estimated scf accuracy    <          4.8E-11 Ry

     The total energy is the sum of the following terms:

     one-electron contribution =     -50.88972895 Ry
     hartree contribution      =      27.51441132 Ry
     xc contribution           =     -14.37791508 Ry
     ewald contribution        =     -78.87092309 Ry
     smearing contrib. (-TS)   =      -0.00064961 Ry

     convergence has been achieved in  10 iterations

     Forces acting on atoms (cartesian axes, Ry/au):

     atom    1 type  1   force =     0.00000000    0.00000000    0.00000000

     Total force =     0.000000     Total SCF correction =     0.000000


     Computing stress (Cartesian axis) and pressure

          total   stress  (Ry/bohr**3)                   (kbar)     P= -164.76
  -0.00112002   0.00000000   0.00000000       -164.76      0.00      0.00
   0.00000000  -0.00112002   0.00000000          0.00   -164.76      0.00
   0.00000000   0.00000000  -0.00112002          0.00      0.00   -164.76


     BFGS Geometry Optimization

     number of scf cycles    =   1
     number of bfgs steps    =   0

     enthalpy new            =    -116.6248054110 Ry

     new trust radius        =       0.0678209724 bohr
     new conv_thr            =            1.0E-10 Ry

     new unit-cell volume =    134.68976 a.u.^3 (    19.95896 Ang^3 )
     density =      3.98242 g/cm^3

CELL_PARAMETERS (alat=  1.88972599)
   1.708805738  -1.708805738   1.708805738
   1.708805738   1.708805738  -1.708805738
  -1.708805738   1.708805738   1.708805738

ATOMIC_POSITIONS (angstrom)
Ti       1.708805738   1.708805738   1.708805738


     NEW-OLD atomic charge density approx. for the potential
     extrapolated charge   11.02172, renormalised to   12.00000

     total cpu time spent up to now is       50.3 secs

     Self-consistent Calculation

     iteration #  1     ecut=    50.00 Ry     beta= 0.60
     Davidson diagonalization with overlap
     ethr =  1.00E-06,  avg # of iterations =  4.9

     total cpu time spent up to now is       57.5 secs

     total energy              =    -115.33882782 Ry
     Harris-Foulkes estimate   =    -119.67557731 Ry
     estimated scf accuracy    <       1.26332386 Ry

     iteration #  2     ecut=    50.00 Ry     beta= 0.60
     Davidson diagonalization with overlap
     ethr =  1.00E-02,  avg # of iterations =  3.0

     total cpu time spent up to now is       63.2 secs

     total energy              =    -116.67913858 Ry
     Harris-Foulkes estimate   =    -117.46719229 Ry
     estimated scf accuracy    <       2.04121159 Ry

     iteration #  3     ecut=    50.00 Ry     beta= 0.60
     Davidson diagonalization with overlap
     ethr =  1.00E-02,  avg # of iterations =  2.0

     total cpu time spent up to now is       66.9 secs

     total energy              =    -116.77167461 Ry
     Harris-Foulkes estimate   =    -116.76805680 Ry
     estimated scf accuracy    <       0.58232063 Ry

     iteration #  4     ecut=    50.00 Ry     beta= 0.60
     Davidson diagonalization with overlap
     ethr =  4.85E-03,  avg # of iterations =  1.4

     total cpu time spent up to now is       70.4 secs

     total energy              =    -116.64280966 Ry
     Harris-Foulkes estimate   =    -116.78785996 Ry
     estimated scf accuracy    <       0.55383415 Ry

     iteration #  5     ecut=    50.00 Ry     beta= 0.60
     Davidson diagonalization with overlap
     ethr =  4.62E-03,  avg # of iterations =  1.8

     total cpu time spent up to now is       74.1 secs

     total energy              =    -116.66155508 Ry
     Harris-Foulkes estimate   =    -116.67405738 Ry
     estimated scf accuracy    <       0.18569344 Ry

     iteration #  6     ecut=    50.00 Ry     beta= 0.60
     Davidson diagonalization with overlap
     ethr =  1.55E-03,  avg # of iterations =  1.8

     total cpu time spent up to now is       77.9 secs

     total energy              =    -116.63012070 Ry
     Harris-Foulkes estimate   =    -116.66883367 Ry
     estimated scf accuracy    <       0.12893921 Ry

     iteration #  7     ecut=    50.00 Ry     beta= 0.60
     Davidson diagonalization with overlap
     ethr =  1.07E-03,  avg # of iterations =  2.1

     total cpu time spent up to now is       81.6 secs

     total energy              =    -116.64103284 Ry
     Harris-Foulkes estimate   =    -116.63991841 Ry
     estimated scf accuracy    <       0.02681994 Ry

     iteration #  8     ecut=    50.00 Ry     beta= 0.60
     Davidson diagonalization with overlap
     ethr =  2.23E-04,  avg # of iterations =  2.5

     total cpu time spent up to now is       85.6 secs

     total energy              =    -116.64145424 Ry
     Harris-Foulkes estimate   =    -116.64275458 Ry
     estimated scf accuracy    <       0.02293704 Ry

     iteration #  9     ecut=    50.00 Ry     beta= 0.60
     Davidson diagonalization with overlap
     ethr =  1.91E-04,  avg # of iterations =  1.0

     total cpu time spent up to now is       89.1 secs

     total energy              =    -116.63995876 Ry
     Harris-Foulkes estimate   =    -116.64159174 Ry
     estimated scf accuracy    <       0.01845849 Ry

     iteration # 10     ecut=    50.00 Ry     beta= 0.60
     Davidson diagonalization with overlap
     ethr =  1.54E-04,  avg # of iterations =  1.0

     total cpu time spent up to now is       92.6 secs

     total energy              =    -116.63534111 Ry
     Harris-Foulkes estimate   =    -116.64010014 Ry
     estimated scf accuracy    <       0.01300338 Ry

     iteration # 11     ecut=    50.00 Ry     beta= 0.60
     Davidson diagonalization with overlap
     ethr =  1.08E-04,  avg # of iterations =  2.6

     total cpu time spent up to now is       96.5 secs

     total energy              =    -116.63684164 Ry
     Harris-Foulkes estimate   =    -116.63683095 Ry
     estimated scf accuracy    <       0.00103780 Ry

     iteration # 12     ecut=    50.00 Ry     beta= 0.60
     Davidson diagonalization with overlap
     ethr =  8.65E-06,  avg # of iterations =  2.0

     total cpu time spent up to now is      100.4 secs

     total energy              =    -116.63720375 Ry
     Harris-Foulkes estimate   =    -116.63690180 Ry
     estimated scf accuracy    <       0.00098361 Ry

     iteration # 13     ecut=    50.00 Ry     beta= 0.60
     Davidson diagonalization with overlap
     ethr =  8.20E-06,  avg # of iterations =  1.0

     total cpu time spent up to now is      103.9 secs

     total energy              =    -116.63732283 Ry
     Harris-Foulkes estimate   =    -116.63724916 Ry
     estimated scf accuracy    <       0.00197515 Ry

     iteration # 14     ecut=    50.00 Ry     beta= 0.60
     Davidson diagonalization with overlap
     ethr =  8.20E-06,  avg # of iterations =  1.0

     total cpu time spent up to now is      107.3 secs

     total energy              =    -116.63693774 Ry
     Harris-Foulkes estimate   =    -116.63733557 Ry
     estimated scf accuracy    <       0.00228138 Ry

     iteration # 15     ecut=    50.00 Ry     beta= 0.60
     Davidson diagonalization with overlap
     ethr =  8.20E-06,  avg # of iterations =  1.0

     total cpu time spent up to now is      110.8 secs

     total energy              =    -116.63681260 Ry
     Harris-Foulkes estimate   =    -116.63697170 Ry
     estimated scf accuracy    <       0.00127405 Ry

     iteration # 16     ecut=    50.00 Ry     beta= 0.60
     Davidson diagonalization with overlap
     ethr =  8.20E-06,  avg # of iterations =  1.0

     total cpu time spent up to now is      114.2 secs

     total energy              =    -116.63660559 Ry
     Harris-Foulkes estimate   =    -116.63683312 Ry
     estimated scf accuracy    <       0.00073554 Ry

     iteration # 17     ecut=    50.00 Ry     beta= 0.60
     Davidson diagonalization with overlap
     ethr =  6.13E-06,  avg # of iterations =  2.7

     total cpu time spent up to now is      118.1 secs

     total energy              =    -116.63675054 Ry
     Harris-Foulkes estimate   =    -116.63671296 Ry
     estimated scf accuracy    <       0.00024183 Ry

     iteration # 18     ecut=    50.00 Ry     beta= 0.60
     Davidson diagonalization with overlap
     ethr =  2.02E-06,  avg # of iterations =  1.1

     total cpu time spent up to now is      121.7 secs

     total energy              =    -116.63680764 Ry
     Harris-Foulkes estimate   =    -116.63675513 Ry
     estimated scf accuracy    <       0.00033707 Ry

     iteration # 19     ecut=    50.00 Ry     beta= 0.60
     Davidson diagonalization with overlap
     ethr =  2.02E-06,  avg # of iterations =  2.9

     total cpu time spent up to now is      126.0 secs

     total energy              =    -116.63749129 Ry
     Harris-Foulkes estimate   =    -116.63689901 Ry
     estimated scf accuracy    <       0.00080349 Ry

     iteration # 20     ecut=    50.00 Ry     beta= 0.60
     Davidson diagonalization with overlap
     ethr =  2.02E-06,  avg # of iterations =  2.9

     total cpu time spent up to now is      131.0 secs

     total energy              =    -116.63819038 Ry
     Harris-Foulkes estimate   =    -116.63765513 Ry
     estimated scf accuracy    <       0.00323139 Ry

     iteration # 21     ecut=    50.00 Ry     beta= 0.60
     Davidson diagonalization with overlap
     ethr =  2.02E-06,  avg # of iterations =  2.9

     total cpu time spent up to now is      135.1 secs

     total energy              =    -116.63829056 Ry
     Harris-Foulkes estimate   =    -116.63831197 Ry
     estimated scf accuracy    <       0.00598329 Ry

     iteration # 22     ecut=    50.00 Ry     beta= 0.60
     Davidson diagonalization with overlap
     ethr =  2.02E-06,  avg # of iterations =  1.0

     total cpu time spent up to now is      138.5 secs

     total energy              =    -116.63504675 Ry
     Harris-Foulkes estimate   =    -116.63829237 Ry
     estimated scf accuracy    <       0.00633769 Ry

     iteration # 23     ecut=    50.00 Ry     beta= 0.60
     Davidson diagonalization with overlap
     ethr =  2.02E-06,  avg # of iterations =  3.3

     total cpu time spent up to now is      144.5 secs

     total energy              =    -116.63659520 Ry
     Harris-Foulkes estimate   =    -116.63664434 Ry
     estimated scf accuracy    <       0.00016693 Ry

     iteration # 24     ecut=    50.00 Ry     beta= 0.60
     Davidson diagonalization with overlap
     ethr =  1.39E-06,  avg # of iterations =  2.7

     total cpu time spent up to now is      148.5 secs

     total energy              =    -116.63662134 Ry
     Harris-Foulkes estimate   =    -116.63662112 Ry
     estimated scf accuracy    <       0.00000089 Ry

     iteration # 25     ecut=    50.00 Ry     beta= 0.60
     Davidson diagonalization with overlap
     ethr =  7.41E-09,  avg # of iterations =  3.0

     total cpu time spent up to now is      153.0 secs

     total energy              =    -116.63662190 Ry
     Harris-Foulkes estimate   =    -116.63662196 Ry
     estimated scf accuracy    <       0.00000011 Ry

     iteration # 26     ecut=    50.00 Ry     beta= 0.60
     Davidson diagonalization with overlap
     ethr =  9.45E-10,  avg # of iterations =  2.6

     total cpu time spent up to now is      157.0 secs

     total energy              =    -116.63662192 Ry
     Harris-Foulkes estimate   =    -116.63662192 Ry
     estimated scf accuracy    <          3.1E-10 Ry

     iteration # 27     ecut=    50.00 Ry     beta= 0.60
     Davidson diagonalization with overlap
     ethr =  2.59E-12,  avg # of iterations =  3.2

     total cpu time spent up to now is      162.0 secs

     total energy              =    -116.63662193 Ry
     Harris-Foulkes estimate   =    -116.63662193 Ry
     estimated scf accuracy    <          2.8E-10 Ry

     iteration # 28     ecut=    50.00 Ry     beta= 0.60
     Davidson diagonalization with overlap
     ethr =  2.36E-12,  avg # of iterations =  2.7

     total cpu time spent up to now is      166.0 secs

     End of self-consistent calculation

     Number of k-points >= 100: set verbosity='high' to print the bands.

     the Fermi energy is    11.0802 ev

!    total energy              =    -116.63662193 Ry
     Harris-Foulkes estimate   =    -116.63662193 Ry
     estimated scf accuracy    <          2.9E-11 Ry

     The total energy is the sum of the following terms:

     one-electron contribution =     -47.41727680 Ry
     hartree contribution      =      26.35415752 Ry
     xc contribution           =     -14.43021758 Ry
     ewald contribution        =     -81.14296677 Ry
     smearing contrib. (-TS)   =      -0.00031830 Ry

     convergence has been achieved in  28 iterations

     Forces acting on atoms (cartesian axes, Ry/au):

     atom    1 type  1   force =     0.00000000    0.00000000    0.00000000

     Total force =     0.000000     Total SCF correction =     0.000000


     Computing stress (Cartesian axis) and pressure

          total   stress  (Ry/bohr**3)                   (kbar)     P= -122.01
  -0.00082938  -0.00000000  -0.00000000       -122.01     -0.00     -0.00
  -0.00000000  -0.00082938  -0.00000000         -0.00   -122.01     -0.00
  -0.00000000  -0.00000000  -0.00082938         -0.00     -0.00   -122.01


     number of scf cycles    =   2
     number of bfgs steps    =   1

     enthalpy old            =    -116.6248054110 Ry
     enthalpy new            =    -116.6366219255 Ry

     CASE: enthalpy_new < enthalpy_old

     new trust radius        =       0.1002970806 bohr
     new conv_thr            =            1.0E-12 Ry

     new unit-cell volume =    117.97325 a.u.^3 (    17.48183 Ang^3 )
     density =      4.54672 g/cm^3

CELL_PARAMETERS (alat=  1.88972599)
   1.634967096  -1.634967096   1.634967096
   1.634967096   1.634967096  -1.634967096
  -1.634967096   1.634967096   1.634967096

ATOMIC_POSITIONS (angstrom)
Ti       1.634967096   1.634967096   1.634967096


     NEW-OLD atomic charge density approx. for the potential
     extrapolated charge   10.44133, renormalised to   12.00000

     total cpu time spent up to now is      169.4 secs

     Self-consistent Calculation

     iteration #  1     ecut=    50.00 Ry     beta= 0.60
     Davidson diagonalization with overlap
     ethr =  1.00E-06,  avg # of iterations =  5.0

     total cpu time spent up to now is      176.9 secs

     total energy              =    -114.17829488 Ry
     Harris-Foulkes estimate   =    -121.14821583 Ry
     estimated scf accuracy    <       2.42911002 Ry

     iteration #  2     ecut=    50.00 Ry     beta= 0.60
     Davidson diagonalization with overlap
     ethr =  1.00E-02,  avg # of iterations =  3.1

     total cpu time spent up to now is      182.7 secs

     total energy              =    -116.73656497 Ry
     Harris-Foulkes estimate   =    -118.00323599 Ry
     estimated scf accuracy    <       3.13381154 Ry

     iteration #  3     ecut=    50.00 Ry     beta= 0.60
     Davidson diagonalization with overlap
     ethr =  1.00E-02,  avg # of iterations =  2.5

     total cpu time spent up to now is      186.6 secs

     total energy              =    -116.90130230 Ry
     Harris-Foulkes estimate   =    -116.88883966 Ry
     estimated scf accuracy    <       0.80054062 Ry

     iteration #  4     ecut=    50.00 Ry     beta= 0.60
     Davidson diagonalization with overlap
     ethr =  6.67E-03,  avg # of iterations =  1.0

     total cpu time spent up to now is      190.1 secs

     total energy              =    -116.69256150 Ry
     Harris-Foulkes estimate   =    -116.91401407 Ry
     estimated scf accuracy    <       0.81657081 Ry

     iteration #  5     ecut=    50.00 Ry     beta= 0.60
     Davidson diagonalization with overlap
     ethr =  6.67E-03,  avg # of iterations =  1.2

     total cpu time spent up to now is      193.6 secs

     total energy              =    -116.64220378 Ry
     Harris-Foulkes estimate   =    -116.72184122 Ry
     estimated scf accuracy    <       0.33893442 Ry

     iteration #  6     ecut=    50.00 Ry     beta= 0.60
     Davidson diagonalization with overlap
     ethr =  2.82E-03,  avg # of iterations =  2.3

     total cpu time spent up to now is      197.5 secs

     total energy              =    -116.67704095 Ry
     Harris-Foulkes estimate   =    -116.67223581 Ry
     estimated scf accuracy    <       0.09074110 Ry

     iteration #  7     ecut=    50.00 Ry     beta= 0.60
     Davidson diagonalization with overlap
     ethr =  7.56E-04,  avg # of iterations =  1.1

     total cpu time spent up to now is      201.0 secs

     total energy              =    -116.65210631 Ry
     Harris-Foulkes estimate   =    -116.67783638 Ry
     estimated scf accuracy    <       0.10516851 Ry

     iteration #  8     ecut=    50.00 Ry     beta= 0.60
     Davidson diagonalization with overlap
     ethr =  7.56E-04,  avg # of iterations =  1.1

     total cpu time spent up to now is      204.6 secs

     total energy              =    -116.64206263 Ry
     Harris-Foulkes estimate   =    -116.65542451 Ry
     estimated scf accuracy    <       0.04448306 Ry

     iteration #  9     ecut=    50.00 Ry     beta= 0.60
     Davidson diagonalization with overlap
     ethr =  3.71E-04,  avg # of iterations =  2.5

     total cpu time spent up to now is      208.4 secs

     total energy              =    -116.64664807 Ry
     Harris-Foulkes estimate   =    -116.64723835 Ry
     estimated scf accuracy    <       0.00810991 Ry

     iteration # 10     ecut=    50.00 Ry     beta= 0.60
     Davidson diagonalization with overlap
     ethr =  6.76E-05,  avg # of iterations =  1.3

     total cpu time spent up to now is      212.0 secs

     total energy              =    -116.64681679 Ry
     Harris-Foulkes estimate   =    -116.64696533 Ry
     estimated scf accuracy    <       0.00650407 Ry

     iteration # 11     ecut=    50.00 Ry     beta= 0.60
     Davidson diagonalization with overlap
     ethr =  5.42E-05,  avg # of iterations =  1.0

     total cpu time spent up to now is      215.6 secs

     total energy              =    -116.64823741 Ry
     Harris-Foulkes estimate   =    -116.64692185 Ry
     estimated scf accuracy    <       0.00585910 Ry

     iteration # 12     ecut=    50.00 Ry     beta= 0.60
     Davidson diagonalization with overlap
     ethr =  4.88E-05,  avg # of iterations =  1.0

     total cpu time spent up to now is      219.0 secs

     total energy              =    -116.65427481 Ry
     Harris-Foulkes estimate   =    -116.64844147 Ry
     estimated scf accuracy    <       0.01029994 Ry

     iteration # 13     ecut=    50.00 Ry     beta= 0.60
     Davidson diagonalization with overlap
     ethr =  4.88E-05,  avg # of iterations =  2.9

     total cpu time spent up to now is      223.9 secs

     total energy              =    -116.64418969 Ry
     Harris-Foulkes estimate   =    -116.65759555 Ry
     estimated scf accuracy    <       0.03983049 Ry

     iteration # 14     ecut=    50.00 Ry     beta= 0.60
     Davidson diagonalization with overlap
     ethr =  4.88E-05,  avg # of iterations =  2.9

     total cpu time spent up to now is      228.1 secs

     total energy              =    -116.64545574 Ry
     Harris-Foulkes estimate   =    -116.64689662 Ry
     estimated scf accuracy    <       0.00575782 Ry

     iteration # 15     ecut=    50.00 Ry     beta= 0.60
     Davidson diagonalization with overlap
     ethr =  4.80E-05,  avg # of iterations =  1.0

     total cpu time spent up to now is      231.6 secs

     total energy              =    -116.64518667 Ry
     Harris-Foulkes estimate   =    -116.64573611 Ry
     estimated scf accuracy    <       0.00211590 Ry

     iteration # 16     ecut=    50.00 Ry     beta= 0.60
     Davidson diagonalization with overlap
     ethr =  1.76E-05,  avg # of iterations =  2.0

     total cpu time spent up to now is      235.4 secs

     total energy              =    -116.64539699 Ry
     Harris-Foulkes estimate   =    -116.64536120 Ry
     estimated scf accuracy    <       0.00053510 Ry

     iteration # 17     ecut=    50.00 Ry     beta= 0.60
     Davidson diagonalization with overlap
     ethr =  4.46E-06,  avg # of iterations =  1.1

     total cpu time spent up to now is      238.9 secs

     total energy              =    -116.64527332 Ry
     Harris-Foulkes estimate   =    -116.64540681 Ry
     estimated scf accuracy    <       0.00065253 Ry

     iteration # 18     ecut=    50.00 Ry     beta= 0.60
     Davidson diagonalization with overlap
     ethr =  4.46E-06,  avg # of iterations =  1.0

     total cpu time spent up to now is      242.3 secs

     total energy              =    -116.64520609 Ry
     Harris-Foulkes estimate   =    -116.64529184 Ry
     estimated scf accuracy    <       0.00029996 Ry

     iteration # 19     ecut=    50.00 Ry     beta= 0.60
     Davidson diagonalization with overlap
     ethr =  2.50E-06,  avg # of iterations =  1.9

     total cpu time spent up to now is      246.1 secs

     total energy              =    -116.64519034 Ry
     Harris-Foulkes estimate   =    -116.64522656 Ry
     estimated scf accuracy    <       0.00008577 Ry

     iteration # 20     ecut=    50.00 Ry     beta= 0.60
     Davidson diagonalization with overlap
     ethr =  7.15E-07,  avg # of iterations =  2.5

     total cpu time spent up to now is      250.1 secs

     total energy              =    -116.64521965 Ry
     Harris-Foulkes estimate   =    -116.64520296 Ry
     estimated scf accuracy    <       0.00003766 Ry

     iteration # 21     ecut=    50.00 Ry     beta= 0.60
     Davidson diagonalization with overlap
     ethr =  3.14E-07,  avg # of iterations =  1.0

     total cpu time spent up to now is      253.5 secs

     total energy              =    -116.64519764 Ry
     Harris-Foulkes estimate   =    -116.64522097 Ry
     estimated scf accuracy    <       0.00008450 Ry

     iteration # 22     ecut=    50.00 Ry     beta= 0.60
     Davidson diagonalization with overlap
     ethr =  3.14E-07,  avg # of iterations =  1.0

     total cpu time spent up to now is      257.0 secs

     total energy              =    -116.64520341 Ry
     Harris-Foulkes estimate   =    -116.64519969 Ry
     estimated scf accuracy    <       0.00003270 Ry

     iteration # 23     ecut=    50.00 Ry     beta= 0.60
     Davidson diagonalization with overlap
     ethr =  2.72E-07,  avg # of iterations =  2.9

     total cpu time spent up to now is      261.6 secs

     total energy              =    -116.64521458 Ry
     Harris-Foulkes estimate   =    -116.64521523 Ry
     estimated scf accuracy    <       0.00007290 Ry

     iteration # 24     ecut=    50.00 Ry     beta= 0.60
     Davidson diagonalization with overlap
     ethr =  2.72E-07,  avg # of iterations =  1.0

     total cpu time spent up to now is      265.1 secs

     total energy              =    -116.64518977 Ry
     Harris-Foulkes estimate   =    -116.64521484 Ry
     estimated scf accuracy    <       0.00007009 Ry

     iteration # 25     ecut=    50.00 Ry     beta= 0.60
     Davidson diagonalization with overlap
     ethr =  2.72E-07,  avg # of iterations =  2.7

     total cpu time spent up to now is      269.1 secs

     total energy              =    -116.64520214 Ry
     Harris-Foulkes estimate   =    -116.64519585 Ry
     estimated scf accuracy    <       0.00001146 Ry

     iteration # 26     ecut=    50.00 Ry     beta= 0.60
     Davidson diagonalization with overlap
     ethr =  9.55E-08,  avg # of iterations =  1.0

     total cpu time spent up to now is      272.5 secs

     total energy              =    -116.64519362 Ry
     Harris-Foulkes estimate   =    -116.64520268 Ry
     estimated scf accuracy    <       0.00002216 Ry

     iteration # 27     ecut=    50.00 Ry     beta= 0.60
     Davidson diagonalization with overlap
     ethr =  9.55E-08,  avg # of iterations =  2.0

     total cpu time spent up to now is      276.6 secs

     total energy              =    -116.64519498 Ry
     Harris-Foulkes estimate   =    -116.64519525 Ry
     estimated scf accuracy    <       0.00000056 Ry

     iteration # 28     ecut=    50.00 Ry     beta= 0.60
     Davidson diagonalization with overlap
     ethr =  4.63E-09,  avg # of iterations =  2.8

     total cpu time spent up to now is      280.8 secs

     total energy              =    -116.64519512 Ry
     Harris-Foulkes estimate   =    -116.64519512 Ry
     estimated scf accuracy    <          2.9E-09 Ry

     iteration # 29     ecut=    50.00 Ry     beta= 0.60
     Davidson diagonalization with overlap
     ethr =  2.43E-11,  avg # of iterations =  3.0

     total cpu time spent up to now is      285.4 secs

     total energy              =    -116.64519512 Ry
     Harris-Foulkes estimate   =    -116.64519512 Ry
     estimated scf accuracy    <          2.4E-10 Ry

     iteration # 30     ecut=    50.00 Ry     beta= 0.60
     Davidson diagonalization with overlap
     ethr =  1.99E-12,  avg # of iterations =  1.7

     total cpu time spent up to now is      289.0 secs

     total energy              =    -116.64519512 Ry
     Harris-Foulkes estimate   =    -116.64519512 Ry
     estimated scf accuracy    <          2.0E-11 Ry

     iteration # 31     ecut=    50.00 Ry     beta= 0.60
     Davidson diagonalization with overlap
     ethr =  1.65E-13,  avg # of iterations =  2.7

     total cpu time spent up to now is      293.3 secs

     End of self-consistent calculation

     Number of k-points >= 100: set verbosity='high' to print the bands.

     the Fermi energy is    13.0066 ev

!    total energy              =    -116.64519512 Ry
     Harris-Foulkes estimate   =    -116.64519512 Ry
     estimated scf accuracy    <          8.4E-13 Ry

     The total energy is the sum of the following terms:

     one-electron contribution =     -41.89596748 Ry
     hartree contribution      =      24.58328302 Ry
     xc contribution           =     -14.52500459 Ry
     ewald contribution        =     -84.80755827 Ry
     smearing contrib. (-TS)   =       0.00005220 Ry

     convergence has been achieved in  31 iterations

     Forces acting on atoms (cartesian axes, Ry/au):

     atom    1 type  1   force =     0.00000000    0.00000000    0.00000000

     Total force =     0.000000     Total SCF correction =     0.000000


     Computing stress (Cartesian axis) and pressure

          total   stress  (Ry/bohr**3)                   (kbar)     P=  -17.92
  -0.00012181   0.00000000   0.00000000        -17.92      0.00      0.00
   0.00000000  -0.00012181   0.00000000          0.00    -17.92      0.00
   0.00000000   0.00000000  -0.00012181          0.00      0.00    -17.92


     number of scf cycles    =   3
     number of bfgs steps    =   2

     enthalpy old            =    -116.6366219255 Ry
     enthalpy new            =    -116.6451951221 Ry

     CASE: enthalpy_new < enthalpy_old

     new trust radius        =       0.0152397468 bohr
     new conv_thr            =            1.0E-12 Ry

     new unit-cell volume =    115.50772 a.u.^3 (    17.11648 Ang^3 )
     density =      4.64377 g/cm^3

CELL_PARAMETERS (alat=  1.88972599)
   1.623497054  -1.623497054   1.623497054
   1.623497054   1.623497054  -1.623497054
  -1.623497054   1.623497054   1.623497054

ATOMIC_POSITIONS (angstrom)
Ti       1.623497054   1.623497054   1.623497054


     NEW-OLD atomic charge density approx. for the potential
     extrapolated charge   11.76520, renormalised to   12.00000

     total cpu time spent up to now is      296.8 secs

     Self-consistent Calculation

     iteration #  1     ecut=    50.00 Ry     beta= 0.60
     Davidson diagonalization with overlap
     ethr =  1.00E-06,  avg # of iterations =  4.0

     total cpu time spent up to now is      303.2 secs

     total energy              =    -116.59929750 Ry
     Harris-Foulkes estimate   =    -117.23567952 Ry
     estimated scf accuracy    <       0.04102941 Ry

     iteration #  2     ecut=    50.00 Ry     beta= 0.60
     Davidson diagonalization with overlap
     ethr =  3.42E-04,  avg # of iterations =  3.0

     total cpu time spent up to now is      309.0 secs

     total energy              =    -116.64261134 Ry
     Harris-Foulkes estimate   =    -116.67444319 Ry
     estimated scf accuracy    <       0.08857088 Ry

     iteration #  3     ecut=    50.00 Ry     beta= 0.60
     Davidson diagonalization with overlap
     ethr =  3.42E-04,  avg # of iterations =  2.7

     total cpu time spent up to now is      312.9 secs

     total energy              =    -116.64876427 Ry
     Harris-Foulkes estimate   =    -116.64918517 Ry
     estimated scf accuracy    <       0.01345285 Ry

     iteration #  4     ecut=    50.00 Ry     beta= 0.60
     Davidson diagonalization with overlap
     ethr =  1.12E-04,  avg # of iterations =  1.1

     total cpu time spent up to now is      316.4 secs

     total energy              =    -116.64798533 Ry
     Harris-Foulkes estimate   =    -116.64896012 Ry
     estimated scf accuracy    <       0.01216990 Ry

     iteration #  5     ecut=    50.00 Ry     beta= 0.60
     Davidson diagonalization with overlap
     ethr =  1.01E-04,  avg # of iterations =  1.0

     total cpu time spent up to now is      319.9 secs

     total energy              =    -116.64682061 Ry
     Harris-Foulkes estimate   =    -116.64806816 Ry
     estimated scf accuracy    <       0.00914485 Ry

     iteration #  6     ecut=    50.00 Ry     beta= 0.60
     Davidson diagonalization with overlap
     ethr =  7.62E-05,  avg # of iterations =  1.0

     total cpu time spent up to now is      323.5 secs

     total energy              =    -116.64312004 Ry
     Harris-Foulkes estimate   =    -116.64694657 Ry
     estimated scf accuracy    <       0.00532967 Ry

     iteration #  7     ecut=    50.00 Ry     beta= 0.60
     Davidson diagonalization with overlap
     ethr =  4.44E-05,  avg # of iterations =  2.9

     total cpu time spent up to now is      328.2 secs

     total energy              =    -116.64477918 Ry
     Harris-Foulkes estimate   =    -116.64601032 Ry
     estimated scf accuracy    <       0.00221535 Ry

     iteration #  8     ecut=    50.00 Ry     beta= 0.60
     Davidson diagonalization with overlap
     ethr =  1.85E-05,  avg # of iterations =  2.7

     total cpu time spent up to now is      332.2 secs

     total energy              =    -116.64529519 Ry
     Harris-Foulkes estimate   =    -116.64531175 Ry
     estimated scf accuracy    <       0.00002133 Ry

     iteration #  9     ecut=    50.00 Ry     beta= 0.60
     Davidson diagonalization with overlap
     ethr =  1.78E-07,  avg # of iterations =  3.0

     total cpu time spent up to now is      337.2 secs

     total energy              =    -116.64534093 Ry
     Harris-Foulkes estimate   =    -116.64531886 Ry
     estimated scf accuracy    <       0.00001149 Ry

     iteration # 10     ecut=    50.00 Ry     beta= 0.60
     Davidson diagonalization with overlap
     ethr =  9.58E-08,  avg # of iterations =  2.9

     total cpu time spent up to now is      341.8 secs

     total energy              =    -116.64528679 Ry
     Harris-Foulkes estimate   =    -116.64535228 Ry
     estimated scf accuracy    <       0.00011843 Ry

     iteration # 11     ecut=    50.00 Ry     beta= 0.60
     Davidson diagonalization with overlap
     ethr =  9.58E-08,  avg # of iterations =  3.0

     total cpu time spent up to now is      346.7 secs

     total energy              =    -116.64531641 Ry
     Harris-Foulkes estimate   =    -116.64531643 Ry
     estimated scf accuracy    <       0.00000282 Ry

     iteration # 12     ecut=    50.00 Ry     beta= 0.60
     Davidson diagonalization with overlap
     ethr =  2.35E-08,  avg # of iterations =  1.0

     total cpu time spent up to now is      350.2 secs

     total energy              =    -116.64531702 Ry
     Harris-Foulkes estimate   =    -116.64531641 Ry
     estimated scf accuracy    <       0.00000270 Ry

     iteration # 13     ecut=    50.00 Ry     beta= 0.60
     Davidson diagonalization with overlap
     ethr =  2.25E-08,  avg # of iterations =  1.0

     total cpu time spent up to now is      353.7 secs

     total energy              =    -116.64531771 Ry
     Harris-Foulkes estimate   =    -116.64531709 Ry
     estimated scf accuracy    <       0.00000458 Ry

     iteration # 14     ecut=    50.00 Ry     beta= 0.60
     Davidson diagonalization with overlap
     ethr =  2.25E-08,  avg # of iterations =  1.0

     total cpu time spent up to now is      357.1 secs

     total energy              =    -116.64531629 Ry
     Harris-Foulkes estimate   =    -116.64531780 Ry
     estimated scf accuracy    <       0.00000731 Ry

     iteration # 15     ecut=    50.00 Ry     beta= 0.60
     Davidson diagonalization with overlap
     ethr =  2.25E-08,  avg # of iterations =  1.9

     total cpu time spent up to now is      360.8 secs

     total energy              =    -116.64531684 Ry
     Harris-Foulkes estimate   =    -116.64531663 Ry
     estimated scf accuracy    <       0.00000255 Ry

     iteration # 16     ecut=    50.00 Ry     beta= 0.60
     Davidson diagonalization with overlap
     ethr =  2.12E-08,  avg # of iterations =  1.0

     total cpu time spent up to now is      364.3 secs

     total energy              =    -116.64531667 Ry
     Harris-Foulkes estimate   =    -116.64531686 Ry
     estimated scf accuracy    <       0.00000345 Ry

     iteration # 17     ecut=    50.00 Ry     beta= 0.60
     Davidson diagonalization with overlap
     ethr =  2.12E-08,  avg # of iterations =  1.0

     total cpu time spent up to now is      367.9 secs

     total energy              =    -116.64531683 Ry
     Harris-Foulkes estimate   =    -116.64531672 Ry
     estimated scf accuracy    <       0.00000171 Ry

     iteration # 18     ecut=    50.00 Ry     beta= 0.60
     Davidson diagonalization with overlap
     ethr =  1.43E-08,  avg # of iterations =  1.0

     total cpu time spent up to now is      371.3 secs

     total energy              =    -116.64531634 Ry
     Harris-Foulkes estimate   =    -116.64531684 Ry
     estimated scf accuracy    <       0.00000198 Ry

     iteration # 19     ecut=    50.00 Ry     beta= 0.60
     Davidson diagonalization with overlap
     ethr =  1.43E-08,  avg # of iterations =  1.0

     total cpu time spent up to now is      374.7 secs

     total energy              =    -116.64531610 Ry
     Harris-Foulkes estimate   =    -116.64531641 Ry
     estimated scf accuracy    <       0.00000075 Ry

     iteration # 20     ecut=    50.00 Ry     beta= 0.60
     Davidson diagonalization with overlap
     ethr =  6.29E-09,  avg # of iterations =  1.9

     total cpu time spent up to now is      378.5 secs

     total energy              =    -116.64531624 Ry
     Harris-Foulkes estimate   =    -116.64531625 Ry
     estimated scf accuracy    <       0.00000001 Ry

     iteration # 21     ecut=    50.00 Ry     beta= 0.60
     Davidson diagonalization with overlap
     ethr =  9.85E-11,  avg # of iterations =  3.0

     total cpu time spent up to now is      383.2 secs

     total energy              =    -116.64531625 Ry
     Harris-Foulkes estimate   =    -116.64531625 Ry
     estimated scf accuracy    <          2.0E-09 Ry

     iteration # 22     ecut=    50.00 Ry     beta= 0.60
     Davidson diagonalization with overlap
     ethr =  1.63E-11,  avg # of iterations =  2.5

     total cpu time spent up to now is      387.1 secs

     total energy              =    -116.64531625 Ry
     Harris-Foulkes estimate   =    -116.64531625 Ry
     estimated scf accuracy    <          7.3E-11 Ry

     iteration # 23     ecut=    50.00 Ry     beta= 0.60
     Davidson diagonalization with overlap
     ethr =  6.04E-13,  avg # of iterations =  2.5

     total cpu time spent up to now is      391.5 secs

     total energy              =    -116.64531625 Ry
     Harris-Foulkes estimate   =    -116.64531625 Ry
     estimated scf accuracy    <          6.4E-12 Ry

     iteration # 24     ecut=    50.00 Ry     beta= 0.60
     Davidson diagonalization with overlap
     ethr =  1.00E-13,  avg # of iterations =  1.4

     total cpu time spent up to now is      395.0 secs

     total energy              =    -116.64531625 Ry
     Harris-Foulkes estimate   =    -116.64531625 Ry
     estimated scf accuracy    <          1.9E-12 Ry

     iteration # 25     ecut=    50.00 Ry     beta= 0.60
     Davidson diagonalization with overlap
     ethr =  1.00E-13,  avg # of iterations =  1.0

     total cpu time spent up to now is      398.5 secs

     End of self-consistent calculation

     Number of k-points >= 100: set verbosity='high' to print the bands.

     the Fermi energy is    13.3356 ev

!    total energy              =    -116.64531625 Ry
     Harris-Foulkes estimate   =    -116.64531625 Ry
     estimated scf accuracy    <          4.4E-14 Ry

     The total energy is the sum of the following terms:

     one-electron contribution =     -41.00175065 Ry
     hartree contribution      =      24.30474683 Ry
     xc contribution           =     -14.54167634 Ry
     ewald contribution        =     -85.40672551 Ry
     smearing contrib. (-TS)   =       0.00008942 Ry

     convergence has been achieved in  25 iterations

     Forces acting on atoms (cartesian axes, Ry/au):

     atom    1 type  1   force =     0.00000000    0.00000000    0.00000000

     Total force =     0.000000     Total SCF correction =     0.000000


     Computing stress (Cartesian axis) and pressure

          total   stress  (Ry/bohr**3)                   (kbar)     P=    3.81
   0.00002593   0.00000000   0.00000000          3.81      0.00      0.00
   0.00000000   0.00002593   0.00000000          0.00      3.81      0.00
   0.00000000   0.00000000   0.00002593          0.00      0.00      3.81


     number of scf cycles    =   4
     number of bfgs steps    =   3

     enthalpy old            =    -116.6451951221 Ry
     enthalpy new            =    -116.6453162520 Ry

     CASE: enthalpy_new < enthalpy_old

     new trust radius        =       0.0026347852 bohr
     new conv_thr            =            1.0E-12 Ry

     new unit-cell volume =    115.93300 a.u.^3 (    17.17950 Ang^3 )
     density =      4.62674 g/cm^3

CELL_PARAMETERS (alat=  1.88972599)
   1.625487091  -1.625487091   1.625487091
   1.625487091   1.625487091  -1.625487091
  -1.625487091   1.625487091   1.625487091

ATOMIC_POSITIONS (angstrom)
Ti       1.625487091   1.625487091   1.625487091


     NEW-OLD atomic charge density approx. for the potential
     extrapolated charge   12.04035, renormalised to   12.00000

     total cpu time spent up to now is      401.7 secs

     Self-consistent Calculation

     iteration #  1     ecut=    50.00 Ry     beta= 0.60
     Davidson diagonalization with overlap
     ethr =  1.00E-06,  avg # of iterations =  3.3

     total cpu time spent up to now is      407.2 secs

     total energy              =    -116.64406706 Ry
     Harris-Foulkes estimate   =    -116.54542464 Ry
     estimated scf accuracy    <       0.00109577 Ry

     iteration #  2     ecut=    50.00 Ry     beta= 0.60
     Davidson diagonalization with overlap
     ethr =  9.13E-06,  avg # of iterations =  3.0

     total cpu time spent up to now is      413.0 secs

     total energy              =    -116.64522417 Ry
     Harris-Foulkes estimate   =    -116.64613268 Ry
     estimated scf accuracy    <       0.00257168 Ry

     iteration #  3     ecut=    50.00 Ry     beta= 0.60
     Davidson diagonalization with overlap
     ethr =  9.13E-06,  avg # of iterations =  2.7

     total cpu time spent up to now is      417.0 secs

     total energy              =    -116.64537744 Ry
     Harris-Foulkes estimate   =    -116.64542450 Ry
     estimated scf accuracy    <       0.00036126 Ry

     iteration #  4     ecut=    50.00 Ry     beta= 0.60
     Davidson diagonalization with overlap
     ethr =  3.01E-06,  avg # of iterations =  1.0

     total cpu time spent up to now is      420.5 secs

     total energy              =    -116.64532835 Ry
     Harris-Foulkes estimate   =    -116.64538611 Ry
     estimated scf accuracy    <       0.00023078 Ry

     iteration #  5     ecut=    50.00 Ry     beta= 0.60
     Davidson diagonalization with overlap
     ethr =  1.92E-06,  avg # of iterations =  1.0

     total cpu time spent up to now is      424.1 secs

     total energy              =    -116.64530581 Ry
     Harris-Foulkes estimate   =    -116.64533810 Ry
     estimated scf accuracy    <       0.00007637 Ry

     iteration #  6     ecut=    50.00 Ry     beta= 0.60
     Davidson diagonalization with overlap
     ethr =  6.36E-07,  avg # of iterations =  1.9

     total cpu time spent up to now is      427.9 secs

     total energy              =    -116.64532161 Ry
     Harris-Foulkes estimate   =    -116.64532148 Ry
     estimated scf accuracy    <       0.00000117 Ry

     iteration #  7     ecut=    50.00 Ry     beta= 0.60
     Davidson diagonalization with overlap
     ethr =  9.79E-09,  avg # of iterations =  2.9

     total cpu time spent up to now is      432.2 secs

     total energy              =    -116.64532118 Ry
     Harris-Foulkes estimate   =    -116.64532206 Ry
     estimated scf accuracy    <       0.00000149 Ry

     iteration #  8     ecut=    50.00 Ry     beta= 0.60
     Davidson diagonalization with overlap
     ethr =  9.79E-09,  avg # of iterations =  2.9

     total cpu time spent up to now is      436.8 secs

     total energy              =    -116.64532232 Ry
     Harris-Foulkes estimate   =    -116.64532171 Ry
     estimated scf accuracy    <       0.00000031 Ry

     iteration #  9     ecut=    50.00 Ry     beta= 0.60
     Davidson diagonalization with overlap
     ethr =  2.56E-09,  avg # of iterations =  3.3

     total cpu time spent up to now is      441.9 secs

     total energy              =    -116.64532100 Ry
     Harris-Foulkes estimate   =    -116.64532480 Ry
     estimated scf accuracy    <       0.00001140 Ry

     iteration # 10     ecut=    50.00 Ry     beta= 0.60
     Davidson diagonalization with overlap
     ethr =  2.56E-09,  avg # of iterations =  3.0

     total cpu time spent up to now is      446.9 secs

     total energy              =    -116.64532150 Ry
     Harris-Foulkes estimate   =    -116.64532194 Ry
     estimated scf accuracy    <       0.00000127 Ry

     iteration # 11     ecut=    50.00 Ry     beta= 0.60
     Davidson diagonalization with overlap
     ethr =  2.56E-09,  avg # of iterations =  2.8

     total cpu time spent up to now is      451.2 secs

     total energy              =    -116.64532162 Ry
     Harris-Foulkes estimate   =    -116.64532163 Ry
     estimated scf accuracy    <       0.00000002 Ry

     iteration # 12     ecut=    50.00 Ry     beta= 0.60
     Davidson diagonalization with overlap
     ethr =  1.68E-10,  avg # of iterations =  3.0

     total cpu time spent up to now is      455.9 secs

     total energy              =    -116.64532162 Ry
     Harris-Foulkes estimate   =    -116.64532165 Ry
     estimated scf accuracy    <       0.00000010 Ry

     iteration # 13     ecut=    50.00 Ry     beta= 0.60
     Davidson diagonalization with overlap
     ethr =  1.68E-10,  avg # of iterations =  2.7

     total cpu time spent up to now is      460.0 secs

     total energy              =    -116.64532163 Ry
     Harris-Foulkes estimate   =    -116.64532163 Ry
     estimated scf accuracy    <       0.00000001 Ry

     iteration # 14     ecut=    50.00 Ry     beta= 0.60
     Davidson diagonalization with overlap
     ethr =  9.97E-11,  avg # of iterations =  2.9

     total cpu time spent up to now is      464.4 secs

     total energy              =    -116.64532163 Ry
     Harris-Foulkes estimate   =    -116.64532163 Ry
     estimated scf accuracy    <          6.0E-09 Ry

     iteration # 15     ecut=    50.00 Ry     beta= 0.60
     Davidson diagonalization with overlap
     ethr =  5.02E-11,  avg # of iterations =  2.1

     total cpu time spent up to now is      468.3 secs

     total energy              =    -116.64532163 Ry
     Harris-Foulkes estimate   =    -116.64532163 Ry
     estimated scf accuracy    <          8.9E-10 Ry

     iteration # 16     ecut=    50.00 Ry     beta= 0.60
     Davidson diagonalization with overlap
     ethr =  7.40E-12,  avg # of iterations =  2.9

     total cpu time spent up to now is      472.5 secs

     total energy              =    -116.64532163 Ry
     Harris-Foulkes estimate   =    -116.64532163 Ry
     estimated scf accuracy    <          1.3E-09 Ry

     iteration # 17     ecut=    50.00 Ry     beta= 0.60
     Davidson diagonalization with overlap
     ethr =  7.40E-12,  avg # of iterations =  1.0

     total cpu time spent up to now is      476.0 secs

     total energy              =    -116.64532163 Ry
     Harris-Foulkes estimate   =    -116.64532163 Ry
     estimated scf accuracy    <          6.1E-10 Ry

     iteration # 18     ecut=    50.00 Ry     beta= 0.60
     Davidson diagonalization with overlap
     ethr =  5.08E-12,  avg # of iterations =  2.7

     total cpu time spent up to now is      480.1 secs

     total energy              =    -116.64532163 Ry
     Harris-Foulkes estimate   =    -116.64532163 Ry
     estimated scf accuracy    <          1.2E-11 Ry

     iteration # 19     ecut=    50.00 Ry     beta= 0.60
     Davidson diagonalization with overlap
     ethr =  1.04E-13,  avg # of iterations =  2.8

     total cpu time spent up to now is      484.4 secs

     End of self-consistent calculation

     Number of k-points >= 100: set verbosity='high' to print the bands.

     the Fermi energy is    13.2779 ev

!    total energy              =    -116.64532163 Ry
     Harris-Foulkes estimate   =    -116.64532163 Ry
     estimated scf accuracy    <          7.4E-13 Ry

     The total energy is the sum of the following terms:

     one-electron contribution =     -41.15763919 Ry
     hartree contribution      =      24.35314263 Ry
     xc contribution           =     -14.53874402 Ry
     ewald contribution        =     -85.30216450 Ry
     smearing contrib. (-TS)   =       0.00008346 Ry

     convergence has been achieved in  19 iterations

     Forces acting on atoms (cartesian axes, Ry/au):

     atom    1 type  1   force =     0.00000000    0.00000000    0.00000000

     Total force =     0.000000     Total SCF correction =     0.000000


     Computing stress (Cartesian axis) and pressure

          total   stress  (Ry/bohr**3)                   (kbar)     P=   -0.08
  -0.00000054  -0.00000000  -0.00000000         -0.08     -0.00     -0.00
  -0.00000000  -0.00000054  -0.00000000         -0.00     -0.08     -0.00
  -0.00000000  -0.00000000  -0.00000054         -0.00     -0.00     -0.08


     number of scf cycles    =   5
     number of bfgs steps    =   4

     enthalpy old            =    -116.6453162520 Ry
     enthalpy new            =    -116.6453216282 Ry

     CASE: enthalpy_new < enthalpy_old

     small trust_radius: resetting bfgs history

     new trust radius        =       0.0000291286 bohr
     new conv_thr            =            1.0E-12 Ry

     new unit-cell volume =    115.92830 a.u.^3 (    17.17880 Ang^3 )
     density =      4.62692 g/cm^3

CELL_PARAMETERS (alat=  1.88972599)
   1.625465104  -1.625465104   1.625465104
   1.625465104   1.625465104  -1.625465104
  -1.625465104   1.625465104   1.625465104

ATOMIC_POSITIONS (angstrom)
Ti       1.625465104   1.625465104   1.625465104


     NEW-OLD atomic charge density approx. for the potential
     extrapolated charge   11.99955, renormalised to   12.00000

     total cpu time spent up to now is      487.7 secs

     Self-consistent Calculation

     iteration #  1     ecut=    50.00 Ry     beta= 0.60
     Davidson diagonalization with overlap
     ethr =  1.00E-06,  avg # of iterations =  2.0

     Threshold (ethr) on eigenvalues was too large:
     Diagonalizing with lowered threshold

     Davidson diagonalization with overlap
     ethr =  1.12E-09,  avg # of iterations =  1.0

     total cpu time spent up to now is      495.9 secs

     total energy              =    -116.64532148 Ry
     Harris-Foulkes estimate   =    -116.64642963 Ry
     estimated scf accuracy    <       0.00000013 Ry

     iteration #  2     ecut=    50.00 Ry     beta= 0.60
     Davidson diagonalization with overlap
     ethr =  1.12E-09,  avg # of iterations =  3.0

     total cpu time spent up to now is      500.7 secs

     total energy              =    -116.64532162 Ry
     Harris-Foulkes estimate   =    -116.64532173 Ry
     estimated scf accuracy    <       0.00000031 Ry

     iteration #  3     ecut=    50.00 Ry     beta= 0.60
     Davidson diagonalization with overlap
     ethr =  1.12E-09,  avg # of iterations =  2.7

     total cpu time spent up to now is      504.7 secs

     total energy              =    -116.64532164 Ry
     Harris-Foulkes estimate   =    -116.64532164 Ry
     estimated scf accuracy    <       0.00000004 Ry

     iteration #  4     ecut=    50.00 Ry     beta= 0.60
     Davidson diagonalization with overlap
     ethr =  3.72E-10,  avg # of iterations =  1.0

     total cpu time spent up to now is      508.2 secs

     total energy              =    -116.64532167 Ry
     Harris-Foulkes estimate   =    -116.64532164 Ry
     estimated scf accuracy    <       0.00000005 Ry

     iteration #  5     ecut=    50.00 Ry     beta= 0.60
     Davidson diagonalization with overlap
     ethr =  3.72E-10,  avg # of iterations =  2.2

     total cpu time spent up to now is      512.1 secs

     total energy              =    -116.64532167 Ry
     Harris-Foulkes estimate   =    -116.64532167 Ry
     estimated scf accuracy    <       0.00000013 Ry

     iteration #  6     ecut=    50.00 Ry     beta= 0.60
     Davidson diagonalization with overlap
     ethr =  3.72E-10,  avg # of iterations =  1.0

     total cpu time spent up to now is      515.7 secs

     total energy              =    -116.64532160 Ry
     Harris-Foulkes estimate   =    -116.64532167 Ry
     estimated scf accuracy    <       0.00000014 Ry

     iteration #  7     ecut=    50.00 Ry     beta= 0.60
     Davidson diagonalization with overlap
     ethr =  3.72E-10,  avg # of iterations =  2.9

     total cpu time spent up to now is      520.3 secs

     total energy              =    -116.64532163 Ry
     Harris-Foulkes estimate   =    -116.64532163 Ry
     estimated scf accuracy    <          1.1E-09 Ry

     iteration #  8     ecut=    50.00 Ry     beta= 0.60
     Davidson diagonalization with overlap
     ethr =  9.34E-12,  avg # of iterations =  1.0

     total cpu time spent up to now is      523.7 secs

     total energy              =    -116.64532163 Ry
     Harris-Foulkes estimate   =    -116.64532163 Ry
     estimated scf accuracy    <          1.2E-09 Ry

     iteration #  9     ecut=    50.00 Ry     beta= 0.60
     Davidson diagonalization with overlap
     ethr =  9.34E-12,  avg # of iterations =  1.0

     total cpu time spent up to now is      527.2 secs

     total energy              =    -116.64532163 Ry
     Harris-Foulkes estimate   =    -116.64532163 Ry
     estimated scf accuracy    <          1.5E-09 Ry

     iteration # 10     ecut=    50.00 Ry     beta= 0.60
     Davidson diagonalization with overlap
     ethr =  9.34E-12,  avg # of iterations =  1.0

     total cpu time spent up to now is      530.7 secs

     total energy              =    -116.64532163 Ry
     Harris-Foulkes estimate   =    -116.64532163 Ry
     estimated scf accuracy    <          1.4E-09 Ry

     iteration # 11     ecut=    50.00 Ry     beta= 0.60
     Davidson diagonalization with overlap
     ethr =  9.34E-12,  avg # of iterations =  1.0

     total cpu time spent up to now is      534.3 secs

     total energy              =    -116.64532163 Ry
     Harris-Foulkes estimate   =    -116.64532163 Ry
     estimated scf accuracy    <          7.8E-10 Ry

     iteration # 12     ecut=    50.00 Ry     beta= 0.60
     Davidson diagonalization with overlap
     ethr =  6.47E-12,  avg # of iterations =  1.3

     total cpu time spent up to now is      538.0 secs

     total energy              =    -116.64532163 Ry
     Harris-Foulkes estimate   =    -116.64532163 Ry
     estimated scf accuracy    <          3.4E-10 Ry

     iteration # 13     ecut=    50.00 Ry     beta= 0.60
     Davidson diagonalization with overlap
     ethr =  2.86E-12,  avg # of iterations =  1.0

     total cpu time spent up to now is      541.5 secs

     total energy              =    -116.64532163 Ry
     Harris-Foulkes estimate   =    -116.64532163 Ry
     estimated scf accuracy    <          3.5E-10 Ry

     iteration # 14     ecut=    50.00 Ry     beta= 0.60
     Davidson diagonalization with overlap
     ethr =  2.86E-12,  avg # of iterations =  2.7

     total cpu time spent up to now is      545.5 secs

     total energy              =    -116.64532163 Ry
     Harris-Foulkes estimate   =    -116.64532163 Ry
     estimated scf accuracy    <          3.4E-12 Ry

     iteration # 15     ecut=    50.00 Ry     beta= 0.60
     Davidson diagonalization with overlap
     ethr =  1.00E-13,  avg # of iterations =  2.1

     total cpu time spent up to now is      549.4 secs

     total energy              =    -116.64532163 Ry
     Harris-Foulkes estimate   =    -116.64532163 Ry
     estimated scf accuracy    <          3.2E-12 Ry

     iteration # 16     ecut=    50.00 Ry     beta= 0.60
     Davidson diagonalization with overlap
     ethr =  1.00E-13,  avg # of iterations =  1.0

     total cpu time spent up to now is      552.9 secs

     total energy              =    -116.64532163 Ry
     Harris-Foulkes estimate   =    -116.64532163 Ry
     estimated scf accuracy    <          3.9E-12 Ry

     iteration # 17     ecut=    50.00 Ry     beta= 0.60
     Davidson diagonalization with overlap
     ethr =  1.00E-13,  avg # of iterations =  2.9

     total cpu time spent up to now is      557.6 secs

     total energy              =    -116.64532163 Ry
     Harris-Foulkes estimate   =    -116.64532163 Ry
     estimated scf accuracy    <          3.1E-11 Ry

     iteration # 18     ecut=    50.00 Ry     beta= 0.60
     Davidson diagonalization with overlap
     ethr =  1.00E-13,  avg # of iterations =  1.0

     total cpu time spent up to now is      561.2 secs

     total energy              =    -116.64532163 Ry
     Harris-Foulkes estimate   =    -116.64532163 Ry
     estimated scf accuracy    <          1.9E-11 Ry

     iteration # 19     ecut=    50.00 Ry     beta= 0.60
     Davidson diagonalization with overlap
     ethr =  1.00E-13,  avg # of iterations =  1.7

     total cpu time spent up to now is      564.9 secs

     total energy              =    -116.64532163 Ry
     Harris-Foulkes estimate   =    -116.64532163 Ry
     estimated scf accuracy    <          8.6E-12 Ry

     iteration # 20     ecut=    50.00 Ry     beta= 0.60
     Davidson diagonalization with overlap
     ethr =  1.00E-13,  avg # of iterations =  1.0

     total cpu time spent up to now is      568.3 secs

     total energy              =    -116.64532163 Ry
     Harris-Foulkes estimate   =    -116.64532163 Ry
     estimated scf accuracy    <          8.3E-12 Ry

     iteration # 21     ecut=    50.00 Ry     beta= 0.60
     Davidson diagonalization with overlap
     ethr =  1.00E-13,  avg # of iterations =  1.0

     total cpu time spent up to now is      571.8 secs

     total energy              =    -116.64532163 Ry
     Harris-Foulkes estimate   =    -116.64532163 Ry
     estimated scf accuracy    <          8.6E-12 Ry

     iteration # 22     ecut=    50.00 Ry     beta= 0.60
     Davidson diagonalization with overlap
     ethr =  1.00E-13,  avg # of iterations =  3.0

     total cpu time spent up to now is      576.7 secs

     total energy              =    -116.64532163 Ry
     Harris-Foulkes estimate   =    -116.64532163 Ry
     estimated scf accuracy    <          5.7E-11 Ry

     iteration # 23     ecut=    50.00 Ry     beta= 0.60
     Davidson diagonalization with overlap
     ethr =  1.00E-13,  avg # of iterations =  1.0

     total cpu time spent up to now is      580.2 secs

     total energy              =    -116.64532163 Ry
     Harris-Foulkes estimate   =    -116.64532163 Ry
     estimated scf accuracy    <          6.8E-11 Ry

     iteration # 24     ecut=    50.00 Ry     beta= 0.60
     Davidson diagonalization with overlap
     ethr =  1.00E-13,  avg # of iterations =  2.9

     total cpu time spent up to now is      584.9 secs

     total energy              =    -116.64532163 Ry
     Harris-Foulkes estimate   =    -116.64532163 Ry
     estimated scf accuracy    <          3.1E-12 Ry

     iteration # 25     ecut=    50.00 Ry     beta= 0.60
     Davidson diagonalization with overlap
     ethr =  1.00E-13,  avg # of iterations =  2.9

     total cpu time spent up to now is      589.3 secs

     total energy              =    -116.64532163 Ry
     Harris-Foulkes estimate   =    -116.64532163 Ry
     estimated scf accuracy    <          3.0E-11 Ry

     iteration # 26     ecut=    50.00 Ry     beta= 0.60
     Davidson diagonalization with overlap
     ethr =  1.00E-13,  avg # of iterations =  2.9

     total cpu time spent up to now is      593.6 secs

     End of self-consistent calculation

     Number of k-points >= 100: set verbosity='high' to print the bands.

     the Fermi energy is    13.2785 ev

!    total energy              =    -116.64532163 Ry
     Harris-Foulkes estimate   =    -116.64532163 Ry
     estimated scf accuracy    <          5.5E-13 Ry

     The total energy is the sum of the following terms:

     one-electron contribution =     -41.15591284 Ry
     hartree contribution      =      24.35260122 Ry
     xc contribution           =     -14.53877518 Ry
     ewald contribution        =     -85.30331836 Ry
     smearing contrib. (-TS)   =       0.00008353 Ry

     convergence has been achieved in  26 iterations

     Forces acting on atoms (cartesian axes, Ry/au):

     atom    1 type  1   force =     0.00000000    0.00000000    0.00000000

     Total force =     0.000000     Total SCF correction =     0.000000


     Computing stress (Cartesian axis) and pressure

          total   stress  (Ry/bohr**3)                   (kbar)     P=   -0.05
  -0.00000034   0.00000000   0.00000000         -0.05      0.00      0.00
   0.00000000  -0.00000034   0.00000000          0.00     -0.05      0.00
   0.00000000   0.00000000  -0.00000034          0.00      0.00     -0.05


     number of scf cycles    =   6
     number of bfgs steps    =   5

     enthalpy old            =    -116.6453216282 Ry
     enthalpy new            =    -116.6453216300 Ry

     CASE: enthalpy_new < enthalpy_old

     Message from routine bfgs:
     history already reset at previous step: stopping
     small trust_radius: resetting bfgs history

     new trust radius        =       0.0000184106 bohr
     new conv_thr            =            1.0E-12 Ry

     new unit-cell volume =    115.92532 a.u.^3 (    17.17836 Ang^3 )
     density =      4.62704 g/cm^3

CELL_PARAMETERS (alat=  1.88972599)
   1.625451207  -1.625451207   1.625451207
   1.625451207   1.625451207  -1.625451207
  -1.625451207   1.625451207   1.625451207

ATOMIC_POSITIONS (angstrom)
Ti       1.625451207   1.625451207   1.625451207


     NEW-OLD atomic charge density approx. for the potential
     extrapolated charge   11.99972, renormalised to   12.00000

     total cpu time spent up to now is      597.0 secs

     Self-consistent Calculation

     iteration #  1     ecut=    50.00 Ry     beta= 0.60
     Davidson diagonalization with overlap
     ethr =  1.00E-06,  avg # of iterations =  2.0

     Threshold (ethr) on eigenvalues was too large:
     Diagonalizing with lowered threshold

     Davidson diagonalization with overlap
     ethr =  4.52E-10,  avg # of iterations =  1.0

     total cpu time spent up to now is      605.1 secs

     total energy              =    -116.64532157 Ry
     Harris-Foulkes estimate   =    -116.64602192 Ry
     estimated scf accuracy    <       0.00000005 Ry

     iteration #  2     ecut=    50.00 Ry     beta= 0.60
     Davidson diagonalization with overlap
     ethr =  4.54E-10,  avg # of iterations =  3.0

     total cpu time spent up to now is      610.1 secs

     total energy              =    -116.64532163 Ry
     Harris-Foulkes estimate   =    -116.64532167 Ry
     estimated scf accuracy    <       0.00000013 Ry

     iteration #  3     ecut=    50.00 Ry     beta= 0.60
     Davidson diagonalization with overlap
     ethr =  4.54E-10,  avg # of iterations =  2.7

     total cpu time spent up to now is      614.2 secs

     total energy              =    -116.64532164 Ry
     Harris-Foulkes estimate   =    -116.64532164 Ry
     estimated scf accuracy    <       0.00000002 Ry

     iteration #  4     ecut=    50.00 Ry     beta= 0.60
     Davidson diagonalization with overlap
     ethr =  1.48E-10,  avg # of iterations =  1.0

     total cpu time spent up to now is      617.7 secs

     total energy              =    -116.64532164 Ry
     Harris-Foulkes estimate   =    -116.64532164 Ry
     estimated scf accuracy    <       0.00000002 Ry

     iteration #  5     ecut=    50.00 Ry     beta= 0.60
     Davidson diagonalization with overlap
     ethr =  1.48E-10,  avg # of iterations =  1.8

     total cpu time spent up to now is      621.3 secs

     total energy              =    -116.64532164 Ry
     Harris-Foulkes estimate   =    -116.64532165 Ry
     estimated scf accuracy    <       0.00000005 Ry

     iteration #  6     ecut=    50.00 Ry     beta= 0.60
     Davidson diagonalization with overlap
     ethr =  1.48E-10,  avg # of iterations =  1.0

     total cpu time spent up to now is      624.8 secs

     total energy              =    -116.64532162 Ry
     Harris-Foulkes estimate   =    -116.64532164 Ry
     estimated scf accuracy    <       0.00000004 Ry

     iteration #  7     ecut=    50.00 Ry     beta= 0.60
     Davidson diagonalization with overlap
     ethr =  1.48E-10,  avg # of iterations =  2.9

     total cpu time spent up to now is      629.1 secs

     total energy              =    -116.64532163 Ry
     Harris-Foulkes estimate   =    -116.64532163 Ry
     estimated scf accuracy    <          3.2E-11 Ry

     iteration #  8     ecut=    50.00 Ry     beta= 0.60
     Davidson diagonalization with overlap
     ethr =  2.66E-13,  avg # of iterations =  3.6

     total cpu time spent up to now is      634.5 secs

     total energy              =    -116.64532163 Ry
     Harris-Foulkes estimate   =    -116.64532163 Ry
     estimated scf accuracy    <          6.4E-10 Ry

     iteration #  9     ecut=    50.00 Ry     beta= 0.60
     Davidson diagonalization with overlap
     ethr =  2.66E-13,  avg # of iterations =  2.9

     total cpu time spent up to now is      639.2 secs

     total energy              =    -116.64532163 Ry
     Harris-Foulkes estimate   =    -116.64532163 Ry
     estimated scf accuracy    <          1.4E-09 Ry

     iteration # 10     ecut=    50.00 Ry     beta= 0.60
     Davidson diagonalization with overlap
     ethr =  2.66E-13,  avg # of iterations =  3.1

     total cpu time spent up to now is      644.1 secs

     total energy              =    -116.64532163 Ry
     Harris-Foulkes estimate   =    -116.64532163 Ry
     estimated scf accuracy    <          8.6E-11 Ry

     iteration # 11     ecut=    50.00 Ry     beta= 0.60
     Davidson diagonalization with overlap
     ethr =  2.66E-13,  avg # of iterations =  3.0

     total cpu time spent up to now is      649.1 secs

     total energy              =    -116.64532163 Ry
     Harris-Foulkes estimate   =    -116.64532163 Ry
     estimated scf accuracy    <          3.8E-11 Ry

     iteration # 12     ecut=    50.00 Ry     beta= 0.60
     Davidson diagonalization with overlap
     ethr =  2.66E-13,  avg # of iterations =  1.9

     total cpu time spent up to now is      652.9 secs

     total energy              =    -116.64532163 Ry
     Harris-Foulkes estimate   =    -116.64532163 Ry
     estimated scf accuracy    <          8.9E-11 Ry

     iteration # 13     ecut=    50.00 Ry     beta= 0.60
     Davidson diagonalization with overlap
     ethr =  2.66E-13,  avg # of iterations =  1.9

     total cpu time spent up to now is      656.6 secs

     total energy              =    -116.64532163 Ry
     Harris-Foulkes estimate   =    -116.64532163 Ry
     estimated scf accuracy    <          3.3E-11 Ry

     iteration # 14     ecut=    50.00 Ry     beta= 0.60
     Davidson diagonalization with overlap
     ethr =  2.66E-13,  avg # of iterations =  1.0

     total cpu time spent up to now is      660.1 secs

     total energy              =    -116.64532163 Ry
     Harris-Foulkes estimate   =    -116.64532163 Ry
     estimated scf accuracy    <          1.6E-11 Ry

     iteration # 15     ecut=    50.00 Ry     beta= 0.60
     Davidson diagonalization with overlap
     ethr =  1.32E-13,  avg # of iterations =  1.0

     total cpu time spent up to now is      663.8 secs

     total energy              =    -116.64532163 Ry
     Harris-Foulkes estimate   =    -116.64532163 Ry
     estimated scf accuracy    <          1.8E-11 Ry

     iteration # 16     ecut=    50.00 Ry     beta= 0.60
     Davidson diagonalization with overlap
     ethr =  1.32E-13,  avg # of iterations =  1.0

     total cpu time spent up to now is      667.3 secs

     total energy              =    -116.64532163 Ry
     Harris-Foulkes estimate   =    -116.64532163 Ry
     estimated scf accuracy    <          1.1E-11 Ry

     iteration # 17     ecut=    50.00 Ry     beta= 0.60
     Davidson diagonalization with overlap
     ethr =  1.00E-13,  avg # of iterations =  1.0

     total cpu time spent up to now is      670.8 secs

     total energy              =    -116.64532163 Ry
     Harris-Foulkes estimate   =    -116.64532163 Ry
     estimated scf accuracy    <          7.5E-12 Ry

     iteration # 18     ecut=    50.00 Ry     beta= 0.60
     Davidson diagonalization with overlap
     ethr =  1.00E-13,  avg # of iterations =  1.0

     total cpu time spent up to now is      674.3 secs

     total energy              =    -116.64532163 Ry
     Harris-Foulkes estimate   =    -116.64532163 Ry
     estimated scf accuracy    <          4.4E-12 Ry

     iteration # 19     ecut=    50.00 Ry     beta= 0.60
     Davidson diagonalization with overlap
     ethr =  1.00E-13,  avg # of iterations =  1.9

     total cpu time spent up to now is      678.2 secs

     End of self-consistent calculation

     Number of k-points >= 100: set verbosity='high' to print the bands.

     the Fermi energy is    13.2789 ev

!    total energy              =    -116.64532163 Ry
     Harris-Foulkes estimate   =    -116.64532163 Ry
     estimated scf accuracy    <          2.2E-14 Ry

     The total energy is the sum of the following terms:

     one-electron contribution =     -41.15482946 Ry
     hartree contribution      =      24.35226837 Ry
     xc contribution           =     -14.53879644 Ry
     ewald contribution        =     -85.30404767 Ry
     smearing contrib. (-TS)   =       0.00008357 Ry

     convergence has been achieved in  19 iterations

     Forces acting on atoms (cartesian axes, Ry/au):

     atom    1 type  1   force =     0.00000000    0.00000000    0.00000000

     Total force =     0.000000     Total SCF correction =     0.000000


     Computing stress (Cartesian axis) and pressure

          total   stress  (Ry/bohr**3)                   (kbar)     P=   -0.01
  -0.00000008   0.00000000   0.00000000         -0.01      0.00      0.00
   0.00000000  -0.00000008   0.00000000          0.00     -0.01      0.00
   0.00000000   0.00000000  -0.00000008          0.00      0.00     -0.01


     bfgs converged in   7 scf cycles and   6 bfgs steps
     (criteria: energy <  1.0E-10 Ry, force <  1.0E-05Ry/Bohr, cell <  1.0E-03kbar)

     End of BFGS Geometry Optimization

     Final enthalpy =    -116.6453216306 Ry
Begin final coordinates
     new unit-cell volume =    115.92532 a.u.^3 (    17.17836 Ang^3 )
     density =      4.62704 g/cm^3

CELL_PARAMETERS (alat=  1.88972599)
   1.625451207  -1.625451207   1.625451207
   1.625451207   1.625451207  -1.625451207
  -1.625451207   1.625451207   1.625451207

ATOMIC_POSITIONS (angstrom)
Ti       1.625451207   1.625451207   1.625451207
End final coordinates



     A final scf calculation at the relaxed structure.
     The G-vectors are recalculated for the final unit cell
     Results may differ from those at the preceding step.
 
     G-vector sticks info
     --------------------
     sticks:   dense  smooth     PW     G-vecs:    dense   smooth      PW
     Sum        1051     415    169                21769     5473    1409
 


     bravais-lattice index     =            0
     lattice parameter (alat)  =       1.8897  a.u.
     unit-cell volume          =     115.9253 (a.u.)^3
     number of atoms/cell      =            1
     number of atomic types    =            1
     number of electrons       =        12.00
     number of Kohn-Sham states=           10
     kinetic-energy cutoff     =      50.0000  Ry
     charge density cutoff     =     500.0000  Ry
     convergence threshold     =      1.0E-12
     mixing beta               =       0.6000
     number of iterations used =            8  plain     mixing
     Exchange-correlation      = SLA PW PBE PBE ( 1  4  3  4 0 0)

     celldm(1)=   1.889726  celldm(2)=   0.000000  celldm(3)=   0.000000
     celldm(4)=   0.000000  celldm(5)=   0.000000  celldm(6)=   0.000000

     crystal axes: (cart. coord. in units of alat)
               a(1) = (   1.625451  -1.625451   1.625451 )  
               a(2) = (   1.625451   1.625451  -1.625451 )  
               a(3) = (  -1.625451   1.625451   1.625451 )  

     reciprocal axes: (cart. coord. in units 2 pi/alat)
               b(1) = (  0.307607  0.000000  0.307607 )  
               b(2) = (  0.307607  0.307607  0.000000 )  
               b(3) = (  0.000000  0.307607  0.307607 )  


     PseudoPot. # 1 for Ti read from file:
     /home/u16/abhishekkt/fp/krishna/calculations/pseudopotentials/Ti.pbe-sp-van_ak.UPF
     MD5 check sum: 84d3ec9e8983e94242673103c800fb48
     Pseudo is Ultrasoft, Zval = 12.0
     Generated by new atomic code, or converted to UPF format
     Using radial grid of  851 points,  6 beta functions with: 
                l(1) =   0
                l(2) =   0
                l(3) =   1
                l(4) =   1
                l(5) =   2
                l(6) =   2
     Q(r) pseudized with  8 coefficients,  rinner =    1.000   1.000   1.000
                                                       1.000   1.000

     atomic species   valence    mass     pseudopotential
        Ti            12.00    47.86700     Ti( 1.00)

     48 Sym. Ops., with inversion, found



   Cartesian axes

     site n.     atom                  positions (alat units)
         1           Ti  tau(   1) = (   1.6254513   1.6254513   1.6254513  )

     number of k points=   256  Marzari-Vanderbilt smearing, width (Ry)=  0.0200

     Number of k-points >= 100: set verbosity='high' to print them.

     Dense  grid:    21769 G-vectors     FFT dimensions: (  40,  40,  40)

     Smooth grid:     5473 G-vectors     FFT dimensions: (  24,  24,  24)

     Estimated max dynamical RAM per process >     108.71 MB

     Initial potential from superposition of free atoms

     starting charge   10.99996, renormalised to   12.00000
     Starting wfcs are   10 randomized atomic wfcs

     total cpu time spent up to now is      682.2 secs

     Self-consistent Calculation

     iteration #  1     ecut=    50.00 Ry     beta= 0.60
     Davidson diagonalization with overlap
     ethr =  1.00E-06,  avg # of iterations =  5.8

     total cpu time spent up to now is      688.2 secs

     total energy              =    -116.40389740 Ry
     Harris-Foulkes estimate   =    -116.90321381 Ry
     estimated scf accuracy    <       0.69863567 Ry

     iteration #  2     ecut=    50.00 Ry     beta= 0.60
     Davidson diagonalization with overlap
     ethr =  5.82E-03,  avg # of iterations =  2.8

     total cpu time spent up to now is      691.6 secs

     total energy              =    -116.60310374 Ry
     Harris-Foulkes estimate   =    -116.69934367 Ry
     estimated scf accuracy    <       0.17972334 Ry

     iteration #  3     ecut=    50.00 Ry     beta= 0.60
     Davidson diagonalization with overlap
     ethr =  1.50E-03,  avg # of iterations =  2.8

     total cpu time spent up to now is      696.3 secs

     total energy              =    -116.64396504 Ry
     Harris-Foulkes estimate   =    -116.64474006 Ry
     estimated scf accuracy    <       0.00110476 Ry

     iteration #  4     ecut=    50.00 Ry     beta= 0.60
     Davidson diagonalization with overlap
     ethr =  9.21E-06,  avg # of iterations =  3.1

     total cpu time spent up to now is      700.5 secs

     total energy              =    -116.64520616 Ry
     Harris-Foulkes estimate   =    -116.64526170 Ry
     estimated scf accuracy    <       0.00018225 Ry

     iteration #  5     ecut=    50.00 Ry     beta= 0.60
     Davidson diagonalization with overlap
     ethr =  1.52E-06,  avg # of iterations =  1.2

     total cpu time spent up to now is      703.1 secs

     total energy              =    -116.64520238 Ry
     Harris-Foulkes estimate   =    -116.64521747 Ry
     estimated scf accuracy    <       0.00003451 Ry

     iteration #  6     ecut=    50.00 Ry     beta= 0.60
     Davidson diagonalization with overlap
     ethr =  2.88E-07,  avg # of iterations =  2.9

     total cpu time spent up to now is      706.3 secs

     total energy              =    -116.64521646 Ry
     Harris-Foulkes estimate   =    -116.64521790 Ry
     estimated scf accuracy    <       0.00000409 Ry

     iteration #  7     ecut=    50.00 Ry     beta= 0.60
     Davidson diagonalization with overlap
     ethr =  3.41E-08,  avg # of iterations =  1.4

     total cpu time spent up to now is      708.9 secs

     total energy              =    -116.64521656 Ry
     Harris-Foulkes estimate   =    -116.64521675 Ry
     estimated scf accuracy    <       0.00000063 Ry

     iteration #  8     ecut=    50.00 Ry     beta= 0.60
     Davidson diagonalization with overlap
     ethr =  5.23E-09,  avg # of iterations =  2.5

     total cpu time spent up to now is      711.8 secs

     total energy              =    -116.64521668 Ry
     Harris-Foulkes estimate   =    -116.64521671 Ry
     estimated scf accuracy    <       0.00000004 Ry

     iteration #  9     ecut=    50.00 Ry     beta= 0.60
     Davidson diagonalization with overlap
     ethr =  3.56E-10,  avg # of iterations =  2.9

     total cpu time spent up to now is      715.4 secs

     total energy              =    -116.64521669 Ry
     Harris-Foulkes estimate   =    -116.64521670 Ry
     estimated scf accuracy    <       0.00000002 Ry

     iteration # 10     ecut=    50.00 Ry     beta= 0.60
     Davidson diagonalization with overlap
     ethr =  1.71E-10,  avg # of iterations =  2.7

     total cpu time spent up to now is      718.3 secs

     total energy              =    -116.64521670 Ry
     Harris-Foulkes estimate   =    -116.64521670 Ry
     estimated scf accuracy    <          1.7E-11 Ry

     iteration # 11     ecut=    50.00 Ry     beta= 0.60
     Davidson diagonalization with overlap
     ethr =  1.41E-13,  avg # of iterations =  3.8

     total cpu time spent up to now is      722.3 secs

     total energy              =    -116.64521670 Ry
     Harris-Foulkes estimate   =    -116.64521670 Ry
     estimated scf accuracy    <          3.9E-10 Ry

     iteration # 12     ecut=    50.00 Ry     beta= 0.60
     Davidson diagonalization with overlap
     ethr =  1.41E-13,  avg # of iterations =  3.4

     total cpu time spent up to now is      725.8 secs

     total energy              =    -116.64521670 Ry
     Harris-Foulkes estimate   =    -116.64521670 Ry
     estimated scf accuracy    <          2.4E-12 Ry

     iteration # 13     ecut=    50.00 Ry     beta= 0.60
     Davidson diagonalization with overlap
     ethr =  1.00E-13,  avg # of iterations =  1.0

     total cpu time spent up to now is      728.4 secs

     total energy              =    -116.64521670 Ry
     Harris-Foulkes estimate   =    -116.64521670 Ry
     estimated scf accuracy    <          2.6E-12 Ry

     iteration # 14     ecut=    50.00 Ry     beta= 0.60
     Davidson diagonalization with overlap
     ethr =  1.00E-13,  avg # of iterations =  1.0

     total cpu time spent up to now is      731.0 secs

     End of self-consistent calculation

     Number of k-points >= 100: set verbosity='high' to print the bands.

     the Fermi energy is    13.2793 ev

!    total energy              =    -116.64521670 Ry
     Harris-Foulkes estimate   =    -116.64521670 Ry
     estimated scf accuracy    <          8.0E-14 Ry

     The total energy is the sum of the following terms:

     one-electron contribution =     -41.15462641 Ry
     hartree contribution      =      24.35247337 Ry
     xc contribution           =     -14.53909970 Ry
     ewald contribution        =     -85.30404767 Ry
     smearing contrib. (-TS)   =       0.00008371 Ry

     convergence has been achieved in  14 iterations

     Forces acting on atoms (cartesian axes, Ry/au):

     atom    1 type  1   force =     0.00000000    0.00000000    0.00000000

     Total force =     0.000000     Total SCF correction =     0.000000


     Computing stress (Cartesian axis) and pressure

          total   stress  (Ry/bohr**3)                   (kbar)     P=    0.42
   0.00000285  -0.00000000  -0.00000000          0.42     -0.00     -0.00
  -0.00000000   0.00000285  -0.00000000         -0.00      0.42     -0.00
  -0.00000000  -0.00000000   0.00000285         -0.00     -0.00      0.42

 
     init_run     :      3.28s CPU      3.42s WALL (       2 calls)
     electrons    :    678.56s CPU    704.28s WALL (       8 calls)
     update_pot   :      3.37s CPU      3.38s WALL (       6 calls)
     forces       :      3.72s CPU      4.13s WALL (       8 calls)
     stress       :     13.90s CPU     15.15s WALL (       8 calls)

     Called by init_run:
     wfcinit      :      2.14s CPU      2.19s WALL (       2 calls)
     potinit      :      0.27s CPU      0.28s WALL (       2 calls)
     hinit0       :      0.76s CPU      0.76s WALL (       2 calls)

     Called by electrons:
     c_bands      :    550.18s CPU    559.38s WALL (     174 calls)
     sum_band     :    113.07s CPU    121.35s WALL (     174 calls)
     v_of_rho     :      7.03s CPU      7.04s WALL (     180 calls)
     newd         :      7.84s CPU     16.34s WALL (     180 calls)
     mix_rho      :      0.66s CPU      0.67s WALL (     174 calls)

     Called by c_bands:
     init_us_2    :     26.90s CPU     27.05s WALL (   93696 calls)
     cegterg      :    477.45s CPU    483.03s WALL (   44544 calls)

     Called by sum_band:
     sum_band:bec :      0.27s CPU      0.27s WALL (   44544 calls)
     addusdens    :     10.29s CPU     17.66s WALL (     174 calls)

     Called by *egterg:
     h_psi        :    398.32s CPU    402.66s WALL (  139379 calls)
     s_psi        :      7.47s CPU      7.41s WALL (  139379 calls)
     g_psi        :      4.72s CPU      4.69s WALL (   94323 calls)
     cdiaghg      :     26.65s CPU     26.86s WALL (  136819 calls)

     Called by h_psi:
     h_psi:pot    :    396.38s CPU    400.58s WALL (  139379 calls)
     h_psi:calbec :      9.16s CPU      9.45s WALL (  139379 calls)
     vloc_psi     :    379.26s CPU    382.64s WALL (  139379 calls)
     add_vuspsi   :      7.42s CPU      7.75s WALL (  139379 calls)

     General routines
     calbec       :     12.49s CPU     12.85s WALL (  194163 calls)
     fft          :      2.34s CPU      2.34s WALL (    2404 calls)
     ffts         :      0.07s CPU      0.06s WALL (     354 calls)
     fftw         :    410.12s CPU    412.32s WALL ( 2644212 calls)
     interpolate  :      0.25s CPU      0.24s WALL (     180 calls)
 
     Parallel routines
 
     PWSCF        : 11m43.31s CPU    12m12.83s WALL

 
   This run was terminated on:  13:35:33  13Jan2020            

=------------------------------------------------------------------------------=
   JOB DONE.
=------------------------------------------------------------------------------=
